   2   2   0   0
  0.5000000E+03  0.1000000E-08  0.1000000E-08  0.1000000E-08  0.5000000E-15
  1.000000000000000E-004
  CAR 
 unknown system                          
      3.17215246    -30.65022389  301     -8.65158660      1.00000000
    -30.650  0.0000E+00  0.0000E+00
    -30.537  0.0000E+00  0.0000E+00
    -30.425  0.0000E+00  0.0000E+00
    -30.312  0.0000E+00  0.0000E+00
    -30.199  0.0000E+00  0.0000E+00
    -30.087  0.0000E+00  0.0000E+00
    -29.974  0.0000E+00  0.0000E+00
    -29.861  0.0000E+00  0.0000E+00
    -29.748  0.0000E+00  0.0000E+00
    -29.636  0.0000E+00  0.0000E+00
    -29.523  0.0000E+00  0.0000E+00
    -29.410  0.0000E+00  0.0000E+00
    -29.297  0.1572E-05  0.1772E-06
    -29.185  0.3730E+00  0.4205E-01
    -29.072  0.1517E+02  0.1752E+01
    -28.959  0.2198E+01  0.2000E+01
    -28.846  0.1238E-03  0.2000E+01
    -28.734  0.4387E-12  0.2000E+01
    -28.621  0.0000E+00  0.2000E+01
    -28.508  0.0000E+00  0.2000E+01
    -28.395  0.0000E+00  0.2000E+01
    -28.283  0.0000E+00  0.2000E+01
    -28.170  0.0000E+00  0.2000E+01
    -28.057  0.0000E+00  0.2000E+01
    -27.944  0.0000E+00  0.2000E+01
    -27.832  0.0000E+00  0.2000E+01
    -27.719  0.0000E+00  0.2000E+01
    -27.606  0.0000E+00  0.2000E+01
    -27.493  0.0000E+00  0.2000E+01
    -27.381  0.0000E+00  0.2000E+01
    -27.268  0.0000E+00  0.2000E+01
    -27.155  0.0000E+00  0.2000E+01
    -27.043  0.0000E+00  0.2000E+01
    -26.930  0.0000E+00  0.2000E+01
    -26.817  0.0000E+00  0.2000E+01
    -26.704  0.0000E+00  0.2000E+01
    -26.592  0.0000E+00  0.2000E+01
    -26.479  0.0000E+00  0.2000E+01
    -26.366  0.0000E+00  0.2000E+01
    -26.253  0.0000E+00  0.2000E+01
    -26.141  0.0000E+00  0.2000E+01
    -26.028  0.0000E+00  0.2000E+01
    -25.915  0.0000E+00  0.2000E+01
    -25.802  0.0000E+00  0.2000E+01
    -25.690  0.0000E+00  0.2000E+01
    -25.577  0.0000E+00  0.2000E+01
    -25.464  0.0000E+00  0.2000E+01
    -25.351  0.0000E+00  0.2000E+01
    -25.239  0.0000E+00  0.2000E+01
    -25.126  0.0000E+00  0.2000E+01
    -25.013  0.0000E+00  0.2000E+01
    -24.900  0.0000E+00  0.2000E+01
    -24.788  0.0000E+00  0.2000E+01
    -24.675  0.0000E+00  0.2000E+01
    -24.562  0.0000E+00  0.2000E+01
    -24.449  0.0000E+00  0.2000E+01
    -24.337  0.0000E+00  0.2000E+01
    -24.224  0.0000E+00  0.2000E+01
    -24.111  0.0000E+00  0.2000E+01
    -23.998  0.0000E+00  0.2000E+01
    -23.886  0.0000E+00  0.2000E+01
    -23.773  0.0000E+00  0.2000E+01
    -23.660  0.0000E+00  0.2000E+01
    -23.548  0.0000E+00  0.2000E+01
    -23.435  0.0000E+00  0.2000E+01
    -23.322  0.0000E+00  0.2000E+01
    -23.209  0.0000E+00  0.2000E+01
    -23.097  0.0000E+00  0.2000E+01
    -22.984  0.0000E+00  0.2000E+01
    -22.871  0.0000E+00  0.2000E+01
    -22.758  0.0000E+00  0.2000E+01
    -22.646  0.0000E+00  0.2000E+01
    -22.533  0.0000E+00  0.2000E+01
    -22.420  0.0000E+00  0.2000E+01
    -22.307  0.0000E+00  0.2000E+01
    -22.195  0.0000E+00  0.2000E+01
    -22.082  0.0000E+00  0.2000E+01
    -21.969  0.0000E+00  0.2000E+01
    -21.856  0.0000E+00  0.2000E+01
    -21.744  0.0000E+00  0.2000E+01
    -21.631  0.0000E+00  0.2000E+01
    -21.518  0.0000E+00  0.2000E+01
    -21.405  0.0000E+00  0.2000E+01
    -21.293  0.0000E+00  0.2000E+01
    -21.180  0.0000E+00  0.2000E+01
    -21.067  0.0000E+00  0.2000E+01
    -20.954  0.0000E+00  0.2000E+01
    -20.842  0.0000E+00  0.2000E+01
    -20.729  0.0000E+00  0.2000E+01
    -20.616  0.0000E+00  0.2000E+01
    -20.504  0.0000E+00  0.2000E+01
    -20.391  0.0000E+00  0.2000E+01
    -20.278  0.0000E+00  0.2000E+01
    -20.165  0.0000E+00  0.2000E+01
    -20.053  0.0000E+00  0.2000E+01
    -19.940  0.0000E+00  0.2000E+01
    -19.827  0.0000E+00  0.2000E+01
    -19.714  0.0000E+00  0.2000E+01
    -19.602  0.0000E+00  0.2000E+01
    -19.489  0.0000E+00  0.2000E+01
    -19.376  0.0000E+00  0.2000E+01
    -19.263  0.0000E+00  0.2000E+01
    -19.151  0.0000E+00  0.2000E+01
    -19.038  0.0000E+00  0.2000E+01
    -18.925  0.0000E+00  0.2000E+01
    -18.812  0.0000E+00  0.2000E+01
    -18.700  0.0000E+00  0.2000E+01
    -18.587  0.0000E+00  0.2000E+01
    -18.474  0.0000E+00  0.2000E+01
    -18.361  0.0000E+00  0.2000E+01
    -18.249  0.0000E+00  0.2000E+01
    -18.136  0.0000E+00  0.2000E+01
    -18.023  0.0000E+00  0.2000E+01
    -17.910  0.0000E+00  0.2000E+01
    -17.798  0.0000E+00  0.2000E+01
    -17.685  0.0000E+00  0.2000E+01
    -17.572  0.0000E+00  0.2000E+01
    -17.459  0.0000E+00  0.2000E+01
    -17.347  0.0000E+00  0.2000E+01
    -17.234  0.0000E+00  0.2000E+01
    -17.121  0.0000E+00  0.2000E+01
    -17.009  0.0000E+00  0.2000E+01
    -16.896  0.0000E+00  0.2000E+01
    -16.783  0.0000E+00  0.2000E+01
    -16.670  0.0000E+00  0.2000E+01
    -16.558  0.0000E+00  0.2000E+01
    -16.445  0.0000E+00  0.2000E+01
    -16.332  0.0000E+00  0.2000E+01
    -16.219  0.0000E+00  0.2000E+01
    -16.107  0.0000E+00  0.2000E+01
    -15.994  0.0000E+00  0.2000E+01
    -15.881  0.0000E+00  0.2000E+01
    -15.768  0.0000E+00  0.2000E+01
    -15.656  0.0000E+00  0.2000E+01
    -15.543  0.0000E+00  0.2000E+01
    -15.430  0.0000E+00  0.2000E+01
    -15.317  0.0000E+00  0.2000E+01
    -15.205  0.0000E+00  0.2000E+01
    -15.092  0.0000E+00  0.2000E+01
    -14.979  0.0000E+00  0.2000E+01
    -14.866  0.0000E+00  0.2000E+01
    -14.754  0.0000E+00  0.2000E+01
    -14.641  0.0000E+00  0.2000E+01
    -14.528  0.0000E+00  0.2000E+01
    -14.415  0.0000E+00  0.2000E+01
    -14.303  0.0000E+00  0.2000E+01
    -14.190  0.1221E-12  0.2000E+01
    -14.077  0.5759E-04  0.2000E+01
    -13.965  0.1654E+01  0.2187E+01
    -13.852  0.1554E+02  0.3938E+01
    -13.739  0.5480E+00  0.4000E+01
    -13.626  0.3786E-05  0.4000E+01
    -13.514  0.0000E+00  0.4000E+01
    -13.401  0.0000E+00  0.4000E+01
    -13.288  0.0000E+00  0.4000E+01
    -13.175  0.0000E+00  0.4000E+01
    -13.063  0.0000E+00  0.4000E+01
    -12.950  0.0000E+00  0.4000E+01
    -12.837  0.0000E+00  0.4000E+01
    -12.724  0.0000E+00  0.4000E+01
    -12.612  0.0000E+00  0.4000E+01
    -12.499  0.0000E+00  0.4000E+01
    -12.386  0.0000E+00  0.4000E+01
    -12.273  0.0000E+00  0.4000E+01
    -12.161  0.0000E+00  0.4000E+01
    -12.048  0.0000E+00  0.4000E+01
    -11.935  0.0000E+00  0.4000E+01
    -11.822  0.1153E-07  0.4000E+01
    -11.710  0.4962E-01  0.4006E+01
    -11.597  0.2049E+02  0.6316E+01
    -11.484  0.1492E+02  0.7999E+01
    -11.371  0.1249E-01  0.8000E+01
    -11.259  0.8533E-09  0.8000E+01
    -11.146  0.0000E+00  0.8000E+01
    -11.033  0.0000E+00  0.8000E+01
    -10.921  0.0000E+00  0.8000E+01
    -10.808  0.0000E+00  0.8000E+01
    -10.695  0.0000E+00  0.8000E+01
    -10.582  0.0000E+00  0.8000E+01
    -10.470  0.0000E+00  0.8000E+01
    -10.357  0.0000E+00  0.8000E+01
    -10.244  0.0000E+00  0.8000E+01
    -10.131  0.0000E+00  0.8000E+01
    -10.019  0.0000E+00  0.8000E+01
     -9.906  0.0000E+00  0.8000E+01
     -9.793  0.0000E+00  0.8000E+01
     -9.680  0.0000E+00  0.8000E+01
     -9.568  0.0000E+00  0.8000E+01
     -9.455  0.0000E+00  0.8000E+01
     -9.342  0.0000E+00  0.8000E+01
     -9.229  0.0000E+00  0.8000E+01
     -9.117  0.1607E-06  0.8000E+01
     -9.004  0.1302E+00  0.8015E+01
     -8.891  0.1358E+02  0.9546E+01
     -8.778  0.4028E+01  0.1000E+02
     -8.666  0.7316E-03  0.1000E+02
     -8.553  0.9178E-11  0.1000E+02
     -8.440  0.0000E+00  0.1000E+02
     -8.327  0.0000E+00  0.1000E+02
     -8.215  0.0000E+00  0.1000E+02
     -8.102  0.0000E+00  0.1000E+02
     -7.989  0.0000E+00  0.1000E+02
     -7.876  0.0000E+00  0.1000E+02
     -7.764  0.0000E+00  0.1000E+02
     -7.651  0.0000E+00  0.1000E+02
     -7.538  0.0000E+00  0.1000E+02
     -7.426  0.0000E+00  0.1000E+02
     -7.313  0.0000E+00  0.1000E+02
     -7.200  0.0000E+00  0.1000E+02
     -7.087  0.0000E+00  0.1000E+02
     -6.975  0.0000E+00  0.1000E+02
     -6.862  0.0000E+00  0.1000E+02
     -6.749  0.0000E+00  0.1000E+02
     -6.636  0.0000E+00  0.1000E+02
     -6.524  0.0000E+00  0.1000E+02
     -6.411  0.0000E+00  0.1000E+02
     -6.298  0.0000E+00  0.1000E+02
     -6.185  0.0000E+00  0.1000E+02
     -6.073  0.0000E+00  0.1000E+02
     -5.960  0.0000E+00  0.1000E+02
     -5.847  0.0000E+00  0.1000E+02
     -5.734  0.0000E+00  0.1000E+02
     -5.622  0.0000E+00  0.1000E+02
     -5.509  0.0000E+00  0.1000E+02
     -5.396  0.0000E+00  0.1000E+02
     -5.283  0.0000E+00  0.1000E+02
     -5.171  0.0000E+00  0.1000E+02
     -5.058  0.0000E+00  0.1000E+02
     -4.945  0.0000E+00  0.1000E+02
     -4.832  0.0000E+00  0.1000E+02
     -4.720  0.0000E+00  0.1000E+02
     -4.607  0.0000E+00  0.1000E+02
     -4.494  0.0000E+00  0.1000E+02
     -4.382  0.0000E+00  0.1000E+02
     -4.269  0.0000E+00  0.1000E+02
     -4.156  0.0000E+00  0.1000E+02
     -4.043  0.0000E+00  0.1000E+02
     -3.931  0.0000E+00  0.1000E+02
     -3.818  0.0000E+00  0.1000E+02
     -3.705  0.0000E+00  0.1000E+02
     -3.592  0.0000E+00  0.1000E+02
     -3.480  0.0000E+00  0.1000E+02
     -3.367  0.0000E+00  0.1000E+02
     -3.254  0.0000E+00  0.1000E+02
     -3.141  0.0000E+00  0.1000E+02
     -3.029  0.0000E+00  0.1000E+02
     -2.916  0.0000E+00  0.1000E+02
     -2.803  0.0000E+00  0.1000E+02
     -2.690  0.0000E+00  0.1000E+02
     -2.578  0.0000E+00  0.1000E+02
     -2.465  0.0000E+00  0.1000E+02
     -2.352  0.0000E+00  0.1000E+02
     -2.239  0.4697E-07  0.1000E+02
     -2.127  0.1005E+00  0.1001E+02
     -2.014  0.2340E+02  0.1265E+02
     -1.901  0.1198E+02  0.1400E+02
     -1.788  0.5565E-02  0.1400E+02
     -1.676  0.2007E-09  0.1400E+02
     -1.563  0.0000E+00  0.1400E+02
     -1.450  0.0000E+00  0.1400E+02
     -1.337  0.0000E+00  0.1400E+02
     -1.225  0.0000E+00  0.1400E+02
     -1.112  0.0000E+00  0.1400E+02
     -0.999  0.0000E+00  0.1400E+02
     -0.887  0.0000E+00  0.1400E+02
     -0.774  0.0000E+00  0.1400E+02
     -0.661  0.0000E+00  0.1400E+02
     -0.548  0.0000E+00  0.1400E+02
     -0.436  0.6981E-10  0.1400E+02
     -0.323  0.9034E-03  0.1400E+02
     -0.210  0.9678E+00  0.1411E+02
     -0.097  0.1246E+01  0.1425E+02
      0.015  0.7353E+00  0.1433E+02
      0.128  0.5358E+01  0.1494E+02
      0.241  0.2321E+01  0.1520E+02
      0.354  0.9808E+01  0.1630E+02
      0.466  0.1913E+01  0.1652E+02
      0.579  0.1168E+02  0.1784E+02
      0.692  0.4705E+01  0.1837E+02
      0.805  0.6841E+01  0.1914E+02
      0.917  0.3205E+01  0.1950E+02
      1.030  0.1820E+01  0.1971E+02
      1.143  0.4394E+01  0.2020E+02
      1.256  0.6859E+01  0.2097E+02
      1.368  0.7206E+01  0.2179E+02
      1.481  0.8660E+01  0.2276E+02
      1.594  0.6108E+01  0.2345E+02
      1.707  0.4771E+01  0.2399E+02
      1.819  0.9422E-01  0.2400E+02
      1.932  0.4010E-06  0.2400E+02
      2.045  0.0000E+00  0.2400E+02
      2.157  0.0000E+00  0.2400E+02
      2.270  0.0000E+00  0.2400E+02
      2.383  0.0000E+00  0.2400E+02
      2.496  0.0000E+00  0.2400E+02
      2.608  0.0000E+00  0.2400E+02
      2.721  0.0000E+00  0.2400E+02
      2.834  0.0000E+00  0.2400E+02
      2.947  0.0000E+00  0.2400E+02
      3.059  0.0000E+00  0.2400E+02
      3.172  0.0000E+00  0.2400E+02
