  20  20   1   0
  0.2365477E+02  0.5237364E-09  0.5237364E-09  0.1991556E-08  0.5000000E-15
  1.000000000000000E-004
  CAR 
 unknown system                          
     15.81866128    -65.46216216  301      1.38061341      1.00000000
    -65.462  0.0000E+00  0.0000E+00  0.0000E+00  0.0000E+00
    -65.191  0.0000E+00  0.0000E+00  0.0000E+00  0.0000E+00
    -64.920  0.0000E+00  0.0000E+00  0.0000E+00  0.0000E+00
    -64.649  0.0000E+00  0.0000E+00  0.0000E+00  0.0000E+00
    -64.378  0.0000E+00  0.0000E+00  0.0000E+00  0.0000E+00
    -64.107  0.0000E+00  0.0000E+00  0.0000E+00  0.0000E+00
    -63.837  0.0000E+00  0.0000E+00  0.0000E+00  0.0000E+00
    -63.566 -0.1066E-35 -0.1066E-35 -0.2888E-36 -0.2889E-36
    -63.295 -0.6469E-26 -0.6469E-26 -0.1753E-26 -0.1753E-26
    -63.024 -0.9934E-18 -0.9935E-18 -0.2692E-18 -0.2692E-18
    -62.753 -0.3714E-11 -0.3714E-11 -0.1006E-11 -0.1006E-11
    -62.482 -0.3527E-06 -0.3527E-06 -0.9556E-07 -0.9557E-07
    -62.211 -0.7743E-03 -0.7743E-03 -0.2099E-03 -0.2099E-03
    -61.940 -0.1816E-01 -0.1816E-01 -0.5131E-02 -0.5131E-02
    -61.669  0.4161E+00  0.4161E+00  0.1076E+00  0.1076E+00
    -61.398  0.3595E+00  0.3595E+00  0.2050E+00  0.2050E+00
    -61.127 -0.1798E-01 -0.1798E-01  0.2001E+00  0.2001E+00
    -60.856 -0.5463E-03 -0.5463E-03  0.2000E+00  0.2000E+00
    -60.585 -0.2117E-06 -0.2117E-06  0.2000E+00  0.2000E+00
    -60.314 -0.1837E-11 -0.1837E-11  0.2000E+00  0.2000E+00
    -60.043  0.0000E+00  0.0000E+00  0.2000E+00  0.2000E+00
    -59.773  0.0000E+00  0.0000E+00  0.2000E+00  0.2000E+00
    -59.502  0.0000E+00  0.0000E+00  0.2000E+00  0.2000E+00
    -59.231  0.0000E+00  0.0000E+00  0.2000E+00  0.2000E+00
    -58.960  0.0000E+00  0.0000E+00  0.2000E+00  0.2000E+00
    -58.689  0.0000E+00  0.0000E+00  0.2000E+00  0.2000E+00
    -58.418  0.0000E+00  0.0000E+00  0.2000E+00  0.2000E+00
    -58.147  0.0000E+00  0.0000E+00  0.2000E+00  0.2000E+00
    -57.876  0.0000E+00  0.0000E+00  0.2000E+00  0.2000E+00
    -57.605  0.0000E+00  0.0000E+00  0.2000E+00  0.2000E+00
    -57.334  0.0000E+00  0.0000E+00  0.2000E+00  0.2000E+00
    -57.063  0.0000E+00  0.0000E+00  0.2000E+00  0.2000E+00
    -56.792  0.0000E+00  0.0000E+00  0.2000E+00  0.2000E+00
    -56.521  0.0000E+00  0.0000E+00  0.2000E+00  0.2000E+00
    -56.250  0.0000E+00  0.0000E+00  0.2000E+00  0.2000E+00
    -55.979  0.0000E+00  0.0000E+00  0.2000E+00  0.2000E+00
    -55.708  0.0000E+00  0.0000E+00  0.2000E+00  0.2000E+00
    -55.438  0.0000E+00  0.0000E+00  0.2000E+00  0.2000E+00
    -55.167  0.0000E+00  0.0000E+00  0.2000E+00  0.2000E+00
    -54.896  0.0000E+00  0.0000E+00  0.2000E+00  0.2000E+00
    -54.625  0.0000E+00  0.0000E+00  0.2000E+00  0.2000E+00
    -54.354  0.0000E+00  0.0000E+00  0.2000E+00  0.2000E+00
    -54.083  0.0000E+00  0.0000E+00  0.2000E+00  0.2000E+00
    -53.812  0.0000E+00  0.0000E+00  0.2000E+00  0.2000E+00
    -53.541  0.0000E+00  0.0000E+00  0.2000E+00  0.2000E+00
    -53.270  0.0000E+00  0.0000E+00  0.2000E+00  0.2000E+00
    -52.999  0.0000E+00  0.0000E+00  0.2000E+00  0.2000E+00
    -52.728  0.0000E+00  0.0000E+00  0.2000E+00  0.2000E+00
    -52.457  0.0000E+00  0.0000E+00  0.2000E+00  0.2000E+00
    -52.186  0.0000E+00  0.0000E+00  0.2000E+00  0.2000E+00
    -51.915  0.0000E+00  0.0000E+00  0.2000E+00  0.2000E+00
    -51.644  0.0000E+00  0.0000E+00  0.2000E+00  0.2000E+00
    -51.373  0.0000E+00  0.0000E+00  0.2000E+00  0.2000E+00
    -51.103  0.0000E+00  0.0000E+00  0.2000E+00  0.2000E+00
    -50.832  0.0000E+00  0.0000E+00  0.2000E+00  0.2000E+00
    -50.561  0.0000E+00  0.0000E+00  0.2000E+00  0.2000E+00
    -50.290  0.0000E+00  0.0000E+00  0.2000E+00  0.2000E+00
    -50.019  0.0000E+00  0.0000E+00  0.2000E+00  0.2000E+00
    -49.748  0.0000E+00  0.0000E+00  0.2000E+00  0.2000E+00
    -49.477  0.0000E+00  0.0000E+00  0.2000E+00  0.2000E+00
    -49.206  0.0000E+00  0.0000E+00  0.2000E+00  0.2000E+00
    -48.935  0.0000E+00  0.0000E+00  0.2000E+00  0.2000E+00
    -48.664  0.0000E+00  0.0000E+00  0.2000E+00  0.2000E+00
    -48.393  0.0000E+00  0.0000E+00  0.2000E+00  0.2000E+00
    -48.122  0.0000E+00  0.0000E+00  0.2000E+00  0.2000E+00
    -47.851  0.0000E+00  0.0000E+00  0.2000E+00  0.2000E+00
    -47.580  0.0000E+00  0.0000E+00  0.2000E+00  0.2000E+00
    -47.309  0.0000E+00  0.0000E+00  0.2000E+00  0.2000E+00
    -47.039  0.0000E+00  0.0000E+00  0.2000E+00  0.2000E+00
    -46.768  0.0000E+00  0.0000E+00  0.2000E+00  0.2000E+00
    -46.497  0.0000E+00  0.0000E+00  0.2000E+00  0.2000E+00
    -46.226  0.0000E+00  0.0000E+00  0.2000E+00  0.2000E+00
    -45.955  0.0000E+00  0.0000E+00  0.2000E+00  0.2000E+00
    -45.684  0.0000E+00  0.0000E+00  0.2000E+00  0.2000E+00
    -45.413  0.0000E+00  0.0000E+00  0.2000E+00  0.2000E+00
    -45.142  0.0000E+00  0.0000E+00  0.2000E+00  0.2000E+00
    -44.871  0.0000E+00  0.0000E+00  0.2000E+00  0.2000E+00
    -44.600  0.0000E+00  0.0000E+00  0.2000E+00  0.2000E+00
    -44.329  0.0000E+00  0.0000E+00  0.2000E+00  0.2000E+00
    -44.058  0.0000E+00  0.0000E+00  0.2000E+00  0.2000E+00
    -43.787  0.0000E+00  0.0000E+00  0.2000E+00  0.2000E+00
    -43.516  0.0000E+00  0.0000E+00  0.2000E+00  0.2000E+00
    -43.245  0.0000E+00  0.0000E+00  0.2000E+00  0.2000E+00
    -42.974  0.0000E+00  0.0000E+00  0.2000E+00  0.2000E+00
    -42.704  0.0000E+00  0.0000E+00  0.2000E+00  0.2000E+00
    -42.433  0.0000E+00  0.0000E+00  0.2000E+00  0.2000E+00
    -42.162  0.0000E+00  0.0000E+00  0.2000E+00  0.2000E+00
    -41.891  0.0000E+00  0.0000E+00  0.2000E+00  0.2000E+00
    -41.620  0.0000E+00  0.0000E+00  0.2000E+00  0.2000E+00
    -41.349  0.0000E+00  0.0000E+00  0.2000E+00  0.2000E+00
    -41.078  0.0000E+00  0.0000E+00  0.2000E+00  0.2000E+00
    -40.807  0.0000E+00  0.0000E+00  0.2000E+00  0.2000E+00
    -40.536  0.0000E+00  0.0000E+00  0.2000E+00  0.2000E+00
    -40.265  0.0000E+00  0.0000E+00  0.2000E+00  0.2000E+00
    -39.994  0.0000E+00  0.0000E+00  0.2000E+00  0.2000E+00
    -39.723  0.0000E+00  0.0000E+00  0.2000E+00  0.2000E+00
    -39.452  0.0000E+00  0.0000E+00  0.2000E+00  0.2000E+00
    -39.181  0.0000E+00  0.0000E+00  0.2000E+00  0.2000E+00
    -38.910  0.0000E+00  0.0000E+00  0.2000E+00  0.2000E+00
    -38.639  0.0000E+00  0.0000E+00  0.2000E+00  0.2000E+00
    -38.369  0.0000E+00  0.0000E+00  0.2000E+00  0.2000E+00
    -38.098  0.0000E+00  0.0000E+00  0.2000E+00  0.2000E+00
    -37.827  0.0000E+00  0.0000E+00  0.2000E+00  0.2000E+00
    -37.556  0.0000E+00  0.0000E+00  0.2000E+00  0.2000E+00
    -37.285  0.0000E+00  0.0000E+00  0.2000E+00  0.2000E+00
    -37.014  0.0000E+00  0.0000E+00  0.2000E+00  0.2000E+00
    -36.743  0.0000E+00  0.0000E+00  0.2000E+00  0.2000E+00
    -36.472  0.0000E+00  0.0000E+00  0.2000E+00  0.2000E+00
    -36.201  0.0000E+00  0.0000E+00  0.2000E+00  0.2000E+00
    -35.930  0.0000E+00  0.0000E+00  0.2000E+00  0.2000E+00
    -35.659  0.0000E+00  0.0000E+00  0.2000E+00  0.2000E+00
    -35.388  0.0000E+00  0.0000E+00  0.2000E+00  0.2000E+00
    -35.117  0.0000E+00  0.0000E+00  0.2000E+00  0.2000E+00
    -34.846  0.0000E+00  0.0000E+00  0.2000E+00  0.2000E+00
    -34.575  0.0000E+00  0.0000E+00  0.2000E+00  0.2000E+00
    -34.305  0.0000E+00  0.0000E+00  0.2000E+00  0.2000E+00
    -34.034  0.0000E+00  0.0000E+00  0.2000E+00  0.2000E+00
    -33.763  0.0000E+00  0.0000E+00  0.2000E+00  0.2000E+00
    -33.492  0.0000E+00  0.0000E+00  0.2000E+00  0.2000E+00
    -33.221  0.0000E+00  0.0000E+00  0.2000E+00  0.2000E+00
    -32.950  0.0000E+00  0.0000E+00  0.2000E+00  0.2000E+00
    -32.679  0.0000E+00  0.0000E+00  0.2000E+00  0.2000E+00
    -32.408  0.0000E+00  0.0000E+00  0.2000E+00  0.2000E+00
    -32.137  0.0000E+00  0.0000E+00  0.2000E+00  0.2000E+00
    -31.866  0.0000E+00  0.0000E+00  0.2000E+00  0.2000E+00
    -31.595  0.0000E+00  0.0000E+00  0.2000E+00  0.2000E+00
    -31.324  0.0000E+00  0.0000E+00  0.2000E+00  0.2000E+00
    -31.053  0.0000E+00  0.0000E+00  0.2000E+00  0.2000E+00
    -30.782  0.0000E+00  0.0000E+00  0.2000E+00  0.2000E+00
    -30.511  0.0000E+00  0.0000E+00  0.2000E+00  0.2000E+00
    -30.240  0.0000E+00  0.0000E+00  0.2000E+00  0.2000E+00
    -29.970  0.0000E+00  0.0000E+00  0.2000E+00  0.2000E+00
    -29.699  0.0000E+00  0.0000E+00  0.2000E+00  0.2000E+00
    -29.428  0.0000E+00  0.0000E+00  0.2000E+00  0.2000E+00
    -29.157  0.0000E+00  0.0000E+00  0.2000E+00  0.2000E+00
    -28.886  0.0000E+00  0.0000E+00  0.2000E+00  0.2000E+00
    -28.615  0.0000E+00  0.0000E+00  0.2000E+00  0.2000E+00
    -28.344  0.0000E+00  0.0000E+00  0.2000E+00  0.2000E+00
    -28.073  0.0000E+00  0.0000E+00  0.2000E+00  0.2000E+00
    -27.802  0.0000E+00  0.0000E+00  0.2000E+00  0.2000E+00
    -27.531  0.0000E+00  0.0000E+00  0.2000E+00  0.2000E+00
    -27.260  0.0000E+00  0.0000E+00  0.2000E+00  0.2000E+00
    -26.989  0.0000E+00  0.0000E+00  0.2000E+00  0.2000E+00
    -26.718  0.0000E+00  0.0000E+00  0.2000E+00  0.2000E+00
    -26.447  0.0000E+00  0.0000E+00  0.2000E+00  0.2000E+00
    -26.176  0.0000E+00  0.0000E+00  0.2000E+00  0.2000E+00
    -25.905  0.0000E+00  0.0000E+00  0.2000E+00  0.2000E+00
    -25.635  0.0000E+00  0.0000E+00  0.2000E+00  0.2000E+00
    -25.364  0.0000E+00  0.0000E+00  0.2000E+00  0.2000E+00
    -25.093  0.0000E+00  0.0000E+00  0.2000E+00  0.2000E+00
    -24.822  0.0000E+00  0.0000E+00  0.2000E+00  0.2000E+00
    -24.551  0.0000E+00  0.0000E+00  0.2000E+00  0.2000E+00
    -24.280  0.0000E+00  0.0000E+00  0.2000E+00  0.2000E+00
    -24.009  0.0000E+00  0.0000E+00  0.2000E+00  0.2000E+00
    -23.738  0.0000E+00  0.0000E+00  0.2000E+00  0.2000E+00
    -23.467  0.0000E+00  0.0000E+00  0.2000E+00  0.2000E+00
    -23.196  0.0000E+00  0.0000E+00  0.2000E+00  0.2000E+00
    -22.925  0.0000E+00  0.0000E+00  0.2000E+00  0.2000E+00
    -22.654  0.0000E+00  0.0000E+00  0.2000E+00  0.2000E+00
    -22.383  0.0000E+00  0.0000E+00  0.2000E+00  0.2000E+00
    -22.112  0.0000E+00  0.0000E+00  0.2000E+00  0.2000E+00
    -21.841  0.0000E+00  0.0000E+00  0.2000E+00  0.2000E+00
    -21.571  0.0000E+00  0.0000E+00  0.2000E+00  0.2000E+00
    -21.300  0.0000E+00  0.0000E+00  0.2000E+00  0.2000E+00
    -21.029  0.0000E+00  0.0000E+00  0.2000E+00  0.2000E+00
    -20.758  0.0000E+00  0.0000E+00  0.2000E+00  0.2000E+00
    -20.487  0.0000E+00  0.0000E+00  0.2000E+00  0.2000E+00
    -20.216  0.0000E+00  0.0000E+00  0.2000E+00  0.2000E+00
    -19.945  0.0000E+00  0.0000E+00  0.2000E+00  0.2000E+00
    -19.674  0.0000E+00  0.0000E+00  0.2000E+00  0.2000E+00
    -19.403  0.0000E+00  0.0000E+00  0.2000E+00  0.2000E+00
    -19.132  0.0000E+00  0.0000E+00  0.2000E+00  0.2000E+00
    -18.861  0.0000E+00  0.0000E+00  0.2000E+00  0.2000E+00
    -18.590  0.0000E+00  0.0000E+00  0.2000E+00  0.2000E+00
    -18.319  0.0000E+00  0.0000E+00  0.2000E+00  0.2000E+00
    -18.048  0.0000E+00  0.0000E+00  0.2000E+00  0.2000E+00
    -17.777  0.0000E+00  0.0000E+00  0.2000E+00  0.2000E+00
    -17.506  0.0000E+00  0.0000E+00  0.2000E+00  0.2000E+00
    -17.236  0.0000E+00  0.0000E+00  0.2000E+00  0.2000E+00
    -16.965  0.0000E+00  0.0000E+00  0.2000E+00  0.2000E+00
    -16.694  0.0000E+00  0.0000E+00  0.2000E+00  0.2000E+00
    -16.423  0.0000E+00  0.0000E+00  0.2000E+00  0.2000E+00
    -16.152  0.0000E+00  0.0000E+00  0.2000E+00  0.2000E+00
    -15.881  0.0000E+00  0.0000E+00  0.2000E+00  0.2000E+00
    -15.610  0.0000E+00  0.0000E+00  0.2000E+00  0.2000E+00
    -15.339  0.0000E+00  0.0000E+00  0.2000E+00  0.2000E+00
    -15.068  0.0000E+00  0.0000E+00  0.2000E+00  0.2000E+00
    -14.797  0.0000E+00  0.0000E+00  0.2000E+00  0.2000E+00
    -14.526  0.0000E+00  0.0000E+00  0.2000E+00  0.2000E+00
    -14.255  0.0000E+00  0.0000E+00  0.2000E+00  0.2000E+00
    -13.984  0.0000E+00  0.0000E+00  0.2000E+00  0.2000E+00
    -13.713  0.0000E+00  0.0000E+00  0.2000E+00  0.2000E+00
    -13.442  0.0000E+00  0.0000E+00  0.2000E+00  0.2000E+00
    -13.171  0.0000E+00  0.0000E+00  0.2000E+00  0.2000E+00
    -12.901  0.0000E+00  0.0000E+00  0.2000E+00  0.2000E+00
    -12.630  0.0000E+00  0.0000E+00  0.2000E+00  0.2000E+00
    -12.359  0.0000E+00  0.0000E+00  0.2000E+00  0.2000E+00
    -12.088  0.0000E+00  0.0000E+00  0.2000E+00  0.2000E+00
    -11.817  0.0000E+00  0.0000E+00  0.2000E+00  0.2000E+00
    -11.546  0.0000E+00  0.0000E+00  0.2000E+00  0.2000E+00
    -11.275  0.0000E+00  0.0000E+00  0.2000E+00  0.2000E+00
    -11.004  0.0000E+00  0.0000E+00  0.2000E+00  0.2000E+00
    -10.733 -0.4929E-40 -0.4929E-40  0.2000E+00  0.2000E+00
    -10.462 -0.6196E-30 -0.6196E-30  0.2000E+00  0.2000E+00
    -10.191 -0.1928E-21 -0.1928E-21  0.2000E+00  0.2000E+00
     -9.920 -0.1420E-14 -0.1420E-14  0.2000E+00  0.2000E+00
     -9.649 -0.2581E-09 -0.2581E-09  0.2000E+00  0.2000E+00
     -9.378 -0.1150E-05 -0.1150E-05  0.2000E+00  0.2000E+00
     -9.107 -0.1201E-03 -0.1201E-03  0.2000E+00  0.2000E+00
     -8.837  0.1560E-02  0.1560E-02  0.2004E+00  0.2004E+00
     -8.566  0.7133E-02  0.7133E-02  0.2023E+00  0.2023E+00
     -8.295  0.8829E-02  0.8829E-02  0.2047E+00  0.2047E+00
     -8.024  0.8610E-02  0.8610E-02  0.2070E+00  0.2070E+00
     -7.753  0.9312E-02  0.9312E-02  0.2096E+00  0.2096E+00
     -7.482  0.1807E-01  0.1807E-01  0.2145E+00  0.2145E+00
     -7.211  0.1960E-01  0.1960E-01  0.2198E+00  0.2198E+00
     -6.940  0.1118E+00  0.1118E+00  0.2501E+00  0.2501E+00
     -6.669  0.3050E+00  0.3050E+00  0.3327E+00  0.3327E+00
     -6.398  0.5135E+00  0.5135E+00  0.4718E+00  0.4718E+00
     -6.127  0.6179E+00  0.6179E+00  0.6392E+00  0.6392E+00
     -5.856  0.7231E+00  0.7231E+00  0.8351E+00  0.8351E+00
     -5.585  0.8831E+00  0.8831E+00  0.1074E+01  0.1074E+01
     -5.314  0.5932E+00  0.5932E+00  0.1235E+01  0.1235E+01
     -5.043  0.1378E+00  0.1378E+00  0.1272E+01  0.1272E+01
     -4.772  0.7106E-01  0.7106E-01  0.1292E+01  0.1292E+01
     -4.502  0.1001E+00  0.1001E+00  0.1319E+01  0.1319E+01
     -4.231  0.1304E+00  0.1304E+00  0.1354E+01  0.1354E+01
     -3.960  0.1140E+00  0.1140E+00  0.1385E+01  0.1385E+01
     -3.689  0.9377E-01  0.9377E-01  0.1410E+01  0.1410E+01
     -3.418  0.7996E-01  0.7996E-01  0.1432E+01  0.1432E+01
     -3.147  0.1189E+00  0.1189E+00  0.1464E+01  0.1464E+01
     -2.876  0.1340E+00  0.1340E+00  0.1501E+01  0.1501E+01
     -2.605  0.1761E+00  0.1761E+00  0.1548E+01  0.1548E+01
     -2.334  0.1862E+00  0.1862E+00  0.1599E+01  0.1599E+01
     -2.063  0.1392E+00  0.1392E+00  0.1636E+01  0.1636E+01
     -1.792  0.9669E-01  0.9669E-01  0.1663E+01  0.1663E+01
     -1.521  0.7862E-01  0.7862E-01  0.1684E+01  0.1684E+01
     -1.250  0.9649E-01  0.9649E-01  0.1710E+01  0.1710E+01
     -0.979  0.9630E-01  0.9630E-01  0.1736E+01  0.1736E+01
     -0.708  0.1386E+00  0.1386E+00  0.1774E+01  0.1774E+01
     -0.438  0.1238E+00  0.1238E+00  0.1807E+01  0.1807E+01
     -0.167  0.1348E+00  0.1348E+00  0.1844E+01  0.1844E+01
      0.104  0.1611E+00  0.1611E+00  0.1887E+01  0.1887E+01
      0.375  0.1709E+00  0.1709E+00  0.1934E+01  0.1934E+01
      0.646  0.2164E+00  0.2164E+00  0.1992E+01  0.1992E+01
      0.917  0.2023E+00  0.2023E+00  0.2047E+01  0.2047E+01
      1.188  0.1059E+00  0.1059E+00  0.2076E+01  0.2076E+01
      1.459  0.1151E+00  0.1151E+00  0.2107E+01  0.2107E+01
      1.730  0.7187E-01  0.7187E-01  0.2127E+01  0.2127E+01
      2.001  0.3975E-01  0.3975E-01  0.2137E+01  0.2137E+01
      2.272  0.3718E-01  0.3718E-01  0.2147E+01  0.2147E+01
      2.543  0.3660E-01  0.3660E-01  0.2157E+01  0.2157E+01
      2.814  0.6330E-01  0.6330E-01  0.2174E+01  0.2174E+01
      3.085  0.5163E-01  0.5163E-01  0.2188E+01  0.2188E+01
      3.356  0.8461E-01  0.8461E-01  0.2211E+01  0.2211E+01
      3.627  0.4805E-01  0.4805E-01  0.2224E+01  0.2224E+01
      3.897  0.4168E-01  0.4168E-01  0.2236E+01  0.2236E+01
      4.168  0.4545E-01  0.4545E-01  0.2248E+01  0.2248E+01
      4.439  0.7416E-01  0.7416E-01  0.2268E+01  0.2268E+01
      4.710  0.7248E-01  0.7248E-01  0.2288E+01  0.2288E+01
      4.981  0.3333E-01  0.3333E-01  0.2297E+01  0.2297E+01
      5.252  0.5894E-01  0.5894E-01  0.2313E+01  0.2313E+01
      5.523  0.6559E-01  0.6559E-01  0.2331E+01  0.2331E+01
      5.794  0.5121E-01  0.5121E-01  0.2344E+01  0.2344E+01
      6.065  0.6594E-01  0.6594E-01  0.2362E+01  0.2362E+01
      6.336  0.5668E-01  0.5668E-01  0.2378E+01  0.2378E+01
      6.607  0.8832E-01  0.8831E-01  0.2402E+01  0.2402E+01
      6.878  0.7112E-01  0.7112E-01  0.2421E+01  0.2421E+01
      7.149  0.7545E-01  0.7544E-01  0.2441E+01  0.2441E+01
      7.420  0.5697E-01  0.5697E-01  0.2457E+01  0.2457E+01
      7.691  0.6094E-01  0.6094E-01  0.2473E+01  0.2473E+01
      7.962  0.9429E-01  0.9428E-01  0.2499E+01  0.2499E+01
      8.232  0.7108E-01  0.7108E-01  0.2518E+01  0.2518E+01
      8.503  0.8574E-01  0.8574E-01  0.2541E+01  0.2541E+01
      8.774  0.1191E+00  0.1191E+00  0.2573E+01  0.2573E+01
      9.045  0.7400E-01  0.7400E-01  0.2594E+01  0.2594E+01
      9.316  0.1029E+00  0.1029E+00  0.2621E+01  0.2621E+01
      9.587  0.8467E-01  0.8466E-01  0.2644E+01  0.2644E+01
      9.858  0.9114E-01  0.9114E-01  0.2669E+01  0.2669E+01
     10.129  0.8344E-01  0.8343E-01  0.2692E+01  0.2692E+01
     10.400  0.9772E-01  0.9773E-01  0.2718E+01  0.2718E+01
     10.671  0.1043E+00  0.1043E+00  0.2746E+01  0.2746E+01
     10.942  0.6745E-01  0.6745E-01  0.2765E+01  0.2765E+01
     11.213  0.6227E-01  0.6227E-01  0.2782E+01  0.2782E+01
     11.484  0.4361E-01  0.4361E-01  0.2793E+01  0.2793E+01
     11.755  0.2228E-01  0.2228E-01  0.2799E+01  0.2799E+01
     12.026  0.6557E-03  0.6555E-03  0.2800E+01  0.2800E+01
     12.296  0.1545E-02  0.1545E-02  0.2800E+01  0.2800E+01
     12.567 -0.1685E-05 -0.1768E-05  0.2800E+01  0.2800E+01
     12.838 -0.7160E-05 -0.7155E-05  0.2800E+01  0.2800E+01
     13.109 -0.5157E-08 -0.5150E-08  0.2800E+01  0.2800E+01
     13.380 -0.7387E-13 -0.7373E-13  0.2800E+01  0.2800E+01
     13.651  0.0000E+00  0.0000E+00  0.2800E+01  0.2800E+01
     13.922  0.0000E+00  0.0000E+00  0.2800E+01  0.2800E+01
     14.193  0.0000E+00  0.0000E+00  0.2800E+01  0.2800E+01
     14.464  0.0000E+00  0.0000E+00  0.2800E+01  0.2800E+01
     14.735  0.0000E+00  0.0000E+00  0.2800E+01  0.2800E+01
     15.006  0.0000E+00  0.0000E+00  0.2800E+01  0.2800E+01
     15.277  0.0000E+00  0.0000E+00  0.2800E+01  0.2800E+01
     15.548  0.0000E+00  0.0000E+00  0.2800E+01  0.2800E+01
     15.819  0.0000E+00  0.0000E+00  0.2800E+01  0.2800E+01
     15.81866128    -65.46216216  301      1.38061341      1.00000000
    -65.462  0.0000E+00  0.0000E+00  0.0000E+00  0.0000E+00  0.0000E+00  0.0000E+00  0.0000E+00  0.0000E+00  0.0000E+00  0.0000E+00  0.0000E+00  0.0000E+00  0.0000E+00  0.0000E+00  0.0000E+00  0.0000E+00  0.0000E+00  0.0000E+00
    -65.191  0.0000E+00  0.0000E+00  0.0000E+00  0.0000E+00  0.0000E+00  0.0000E+00  0.0000E+00  0.0000E+00  0.0000E+00  0.0000E+00  0.0000E+00  0.0000E+00  0.0000E+00  0.0000E+00  0.0000E+00  0.0000E+00  0.0000E+00  0.0000E+00
    -64.920  0.0000E+00  0.0000E+00  0.0000E+00  0.0000E+00  0.0000E+00  0.0000E+00  0.0000E+00  0.0000E+00  0.0000E+00  0.0000E+00  0.0000E+00  0.0000E+00  0.0000E+00  0.0000E+00  0.0000E+00  0.0000E+00  0.0000E+00  0.0000E+00
    -64.649  0.0000E+00  0.0000E+00  0.0000E+00  0.0000E+00  0.0000E+00  0.0000E+00  0.0000E+00  0.0000E+00  0.0000E+00  0.0000E+00  0.0000E+00  0.0000E+00  0.0000E+00  0.0000E+00  0.0000E+00  0.0000E+00  0.0000E+00  0.0000E+00
    -64.378  0.0000E+00  0.0000E+00  0.0000E+00  0.0000E+00  0.0000E+00  0.0000E+00  0.0000E+00  0.0000E+00  0.0000E+00  0.0000E+00  0.0000E+00  0.0000E+00  0.0000E+00  0.0000E+00  0.0000E+00  0.0000E+00  0.0000E+00  0.0000E+00
    -64.107  0.0000E+00  0.0000E+00  0.0000E+00  0.0000E+00  0.0000E+00  0.0000E+00  0.0000E+00  0.0000E+00  0.0000E+00  0.0000E+00  0.0000E+00  0.0000E+00  0.0000E+00  0.0000E+00  0.0000E+00  0.0000E+00  0.0000E+00  0.0000E+00
    -63.837  0.0000E+00  0.0000E+00  0.0000E+00  0.0000E+00  0.0000E+00  0.0000E+00  0.0000E+00  0.0000E+00  0.0000E+00  0.0000E+00  0.0000E+00  0.0000E+00  0.0000E+00  0.0000E+00  0.0000E+00  0.0000E+00  0.0000E+00  0.0000E+00
    -63.566 -0.1339E-46 -0.1340E-46 -0.1010E-44 -0.1010E-44 -0.1013E-44 -0.1013E-44 -0.1020E-44 -0.1020E-44 -0.1795E-44 -0.1795E-44 -0.3095E-44 -0.3094E-44 -0.5975E-45 -0.5971E-45 -0.3048E-44 -0.3048E-44 -0.1814E-44 -0.1815E-44
    -63.295 -0.7679E-37 -0.7688E-37 -0.6011E-35 -0.6011E-35 -0.5949E-35 -0.5947E-35 -0.6067E-35 -0.6067E-35 -0.1069E-34 -0.1069E-34 -0.1848E-34 -0.1848E-34 -0.3737E-35 -0.3735E-35 -0.1826E-34 -0.1826E-34 -0.1080E-34 -0.1081E-34
    -63.024 -0.1109E-28 -0.1110E-28 -0.9046E-27 -0.9046E-27 -0.8777E-27 -0.8774E-27 -0.9122E-27 -0.9123E-27 -0.1615E-26 -0.1615E-26 -0.2797E-26 -0.2796E-26 -0.6034E-27 -0.6032E-27 -0.2771E-26 -0.2771E-26 -0.1631E-26 -0.1631E-26
    -62.753 -0.3868E-22 -0.3872E-22 -0.3337E-20 -0.3337E-20 -0.3135E-20 -0.3134E-20 -0.3361E-20 -0.3362E-20 -0.5957E-20 -0.5957E-20 -0.1031E-19 -0.1031E-19 -0.2455E-20 -0.2454E-20 -0.1025E-19 -0.1025E-19 -0.6010E-20 -0.6012E-20
    -62.482 -0.3401E-17 -0.3405E-17 -0.3192E-15 -0.3192E-15 -0.2871E-15 -0.2871E-15 -0.3210E-15 -0.3210E-15 -0.5610E-15 -0.5610E-15 -0.9674E-15 -0.9673E-15 -0.2693E-15 -0.2692E-15 -0.9638E-15 -0.9638E-15 -0.5651E-15 -0.5652E-15
    -62.211 -0.6997E-14 -0.7003E-14 -0.7324E-12 -0.7324E-12 -0.6751E-12 -0.6750E-12 -0.7347E-12 -0.7348E-12 -0.1228E-11 -0.1228E-11 -0.2109E-11 -0.2109E-11 -0.8005E-12 -0.8005E-12 -0.2107E-11 -0.2106E-11 -0.1233E-11 -0.1233E-11
    -61.940 -0.1924E-12 -0.1924E-12 -0.1915E-10 -0.1915E-10 -0.3530E-10 -0.3530E-10 -0.1912E-10 -0.1912E-10 -0.2848E-10 -0.2848E-10 -0.5175E-10 -0.5174E-10 -0.5459E-10 -0.5459E-10 -0.5186E-10 -0.5186E-10 -0.2837E-10 -0.2836E-10
    -61.669  0.4098E-11  0.4099E-11  0.4204E-09  0.4203E-09  0.6048E-09  0.6048E-09  0.4205E-09  0.4205E-09  0.6560E-09  0.6559E-09  0.1161E-08  0.1161E-08  0.8790E-09  0.8791E-09  0.1162E-08  0.1162E-08  0.6557E-09  0.6558E-09
    -61.398  0.5111E-11  0.5114E-11  0.3392E-09  0.3392E-09  0.1163E-08  0.1163E-08  0.3388E-09  0.3388E-09  0.5502E-09  0.5501E-09  0.1107E-08  0.1107E-08  0.1778E-08  0.1778E-08  0.1108E-08  0.1108E-08  0.5471E-09  0.5471E-09
    -61.127 -0.2187E-12 -0.2187E-12 -0.1834E-10 -0.1834E-10 -0.4315E-10 -0.4315E-10 -0.1831E-10 -0.1831E-10 -0.2795E-10 -0.2794E-10 -0.5265E-10 -0.5264E-10 -0.6573E-10 -0.6573E-10 -0.5274E-10 -0.5273E-10 -0.2781E-10 -0.2781E-10
    -60.856 -0.9763E-14 -0.9769E-14 -0.4368E-12 -0.4368E-12 -0.2568E-11 -0.2568E-11 -0.4364E-12 -0.4364E-12 -0.8133E-12 -0.8130E-12 -0.1832E-11 -0.1832E-11 -0.3933E-11 -0.3933E-11 -0.1828E-11 -0.1828E-11 -0.8080E-12 -0.8080E-12
    -60.585 -0.3976E-17 -0.3979E-17 -0.1555E-15 -0.1555E-15 -0.1097E-14 -0.1097E-14 -0.1555E-15 -0.1555E-15 -0.3124E-15 -0.3123E-15 -0.7317E-15 -0.7317E-15 -0.1675E-14 -0.1675E-14 -0.7286E-15 -0.7284E-15 -0.3110E-15 -0.3110E-15
    -60.314 -0.3446E-22 -0.3449E-22 -0.1302E-20 -0.1303E-20 -0.9775E-20 -0.9775E-20 -0.1303E-20 -0.1303E-20 -0.2706E-20 -0.2704E-20 -0.6422E-20 -0.6422E-20 -0.1486E-19 -0.1486E-19 -0.6382E-20 -0.6380E-20 -0.2700E-20 -0.2700E-20
    -60.043  0.0000E+00  0.0000E+00  0.0000E+00  0.0000E+00  0.0000E+00  0.0000E+00  0.0000E+00  0.0000E+00  0.0000E+00  0.0000E+00  0.0000E+00  0.0000E+00  0.0000E+00  0.0000E+00  0.0000E+00  0.0000E+00  0.0000E+00  0.0000E+00
    -59.773  0.0000E+00  0.0000E+00  0.0000E+00  0.0000E+00  0.0000E+00  0.0000E+00  0.0000E+00  0.0000E+00  0.0000E+00  0.0000E+00  0.0000E+00  0.0000E+00  0.0000E+00  0.0000E+00  0.0000E+00  0.0000E+00  0.0000E+00  0.0000E+00
    -59.502  0.0000E+00  0.0000E+00  0.0000E+00  0.0000E+00  0.0000E+00  0.0000E+00  0.0000E+00  0.0000E+00  0.0000E+00  0.0000E+00  0.0000E+00  0.0000E+00  0.0000E+00  0.0000E+00  0.0000E+00  0.0000E+00  0.0000E+00  0.0000E+00
    -59.231  0.0000E+00  0.0000E+00  0.0000E+00  0.0000E+00  0.0000E+00  0.0000E+00  0.0000E+00  0.0000E+00  0.0000E+00  0.0000E+00  0.0000E+00  0.0000E+00  0.0000E+00  0.0000E+00  0.0000E+00  0.0000E+00  0.0000E+00  0.0000E+00
    -58.960  0.0000E+00  0.0000E+00  0.0000E+00  0.0000E+00  0.0000E+00  0.0000E+00  0.0000E+00  0.0000E+00  0.0000E+00  0.0000E+00  0.0000E+00  0.0000E+00  0.0000E+00  0.0000E+00  0.0000E+00  0.0000E+00  0.0000E+00  0.0000E+00
    -58.689  0.0000E+00  0.0000E+00  0.0000E+00  0.0000E+00  0.0000E+00  0.0000E+00  0.0000E+00  0.0000E+00  0.0000E+00  0.0000E+00  0.0000E+00  0.0000E+00  0.0000E+00  0.0000E+00  0.0000E+00  0.0000E+00  0.0000E+00  0.0000E+00
    -58.418  0.0000E+00  0.0000E+00  0.0000E+00  0.0000E+00  0.0000E+00  0.0000E+00  0.0000E+00  0.0000E+00  0.0000E+00  0.0000E+00  0.0000E+00  0.0000E+00  0.0000E+00  0.0000E+00  0.0000E+00  0.0000E+00  0.0000E+00  0.0000E+00
    -58.147  0.0000E+00  0.0000E+00  0.0000E+00  0.0000E+00  0.0000E+00  0.0000E+00  0.0000E+00  0.0000E+00  0.0000E+00  0.0000E+00  0.0000E+00  0.0000E+00  0.0000E+00  0.0000E+00  0.0000E+00  0.0000E+00  0.0000E+00  0.0000E+00
    -57.876  0.0000E+00  0.0000E+00  0.0000E+00  0.0000E+00  0.0000E+00  0.0000E+00  0.0000E+00  0.0000E+00  0.0000E+00  0.0000E+00  0.0000E+00  0.0000E+00  0.0000E+00  0.0000E+00  0.0000E+00  0.0000E+00  0.0000E+00  0.0000E+00
    -57.605  0.0000E+00  0.0000E+00  0.0000E+00  0.0000E+00  0.0000E+00  0.0000E+00  0.0000E+00  0.0000E+00  0.0000E+00  0.0000E+00  0.0000E+00  0.0000E+00  0.0000E+00  0.0000E+00  0.0000E+00  0.0000E+00  0.0000E+00  0.0000E+00
    -57.334  0.0000E+00  0.0000E+00  0.0000E+00  0.0000E+00  0.0000E+00  0.0000E+00  0.0000E+00  0.0000E+00  0.0000E+00  0.0000E+00  0.0000E+00  0.0000E+00  0.0000E+00  0.0000E+00  0.0000E+00  0.0000E+00  0.0000E+00  0.0000E+00
    -57.063  0.0000E+00  0.0000E+00  0.0000E+00  0.0000E+00  0.0000E+00  0.0000E+00  0.0000E+00  0.0000E+00  0.0000E+00  0.0000E+00  0.0000E+00  0.0000E+00  0.0000E+00  0.0000E+00  0.0000E+00  0.0000E+00  0.0000E+00  0.0000E+00
    -56.792  0.0000E+00  0.0000E+00  0.0000E+00  0.0000E+00  0.0000E+00  0.0000E+00  0.0000E+00  0.0000E+00  0.0000E+00  0.0000E+00  0.0000E+00  0.0000E+00  0.0000E+00  0.0000E+00  0.0000E+00  0.0000E+00  0.0000E+00  0.0000E+00
    -56.521  0.0000E+00  0.0000E+00  0.0000E+00  0.0000E+00  0.0000E+00  0.0000E+00  0.0000E+00  0.0000E+00  0.0000E+00  0.0000E+00  0.0000E+00  0.0000E+00  0.0000E+00  0.0000E+00  0.0000E+00  0.0000E+00  0.0000E+00  0.0000E+00
    -56.250  0.0000E+00  0.0000E+00  0.0000E+00  0.0000E+00  0.0000E+00  0.0000E+00  0.0000E+00  0.0000E+00  0.0000E+00  0.0000E+00  0.0000E+00  0.0000E+00  0.0000E+00  0.0000E+00  0.0000E+00  0.0000E+00  0.0000E+00  0.0000E+00
    -55.979  0.0000E+00  0.0000E+00  0.0000E+00  0.0000E+00  0.0000E+00  0.0000E+00  0.0000E+00  0.0000E+00  0.0000E+00  0.0000E+00  0.0000E+00  0.0000E+00  0.0000E+00  0.0000E+00  0.0000E+00  0.0000E+00  0.0000E+00  0.0000E+00
    -55.708  0.0000E+00  0.0000E+00  0.0000E+00  0.0000E+00  0.0000E+00  0.0000E+00  0.0000E+00  0.0000E+00  0.0000E+00  0.0000E+00  0.0000E+00  0.0000E+00  0.0000E+00  0.0000E+00  0.0000E+00  0.0000E+00  0.0000E+00  0.0000E+00
    -55.438  0.0000E+00  0.0000E+00  0.0000E+00  0.0000E+00  0.0000E+00  0.0000E+00  0.0000E+00  0.0000E+00  0.0000E+00  0.0000E+00  0.0000E+00  0.0000E+00  0.0000E+00  0.0000E+00  0.0000E+00  0.0000E+00  0.0000E+00  0.0000E+00
    -55.167  0.0000E+00  0.0000E+00  0.0000E+00  0.0000E+00  0.0000E+00  0.0000E+00  0.0000E+00  0.0000E+00  0.0000E+00  0.0000E+00  0.0000E+00  0.0000E+00  0.0000E+00  0.0000E+00  0.0000E+00  0.0000E+00  0.0000E+00  0.0000E+00
    -54.896  0.0000E+00  0.0000E+00  0.0000E+00  0.0000E+00  0.0000E+00  0.0000E+00  0.0000E+00  0.0000E+00  0.0000E+00  0.0000E+00  0.0000E+00  0.0000E+00  0.0000E+00  0.0000E+00  0.0000E+00  0.0000E+00  0.0000E+00  0.0000E+00
    -54.625  0.0000E+00  0.0000E+00  0.0000E+00  0.0000E+00  0.0000E+00  0.0000E+00  0.0000E+00  0.0000E+00  0.0000E+00  0.0000E+00  0.0000E+00  0.0000E+00  0.0000E+00  0.0000E+00  0.0000E+00  0.0000E+00  0.0000E+00  0.0000E+00
    -54.354  0.0000E+00  0.0000E+00  0.0000E+00  0.0000E+00  0.0000E+00  0.0000E+00  0.0000E+00  0.0000E+00  0.0000E+00  0.0000E+00  0.0000E+00  0.0000E+00  0.0000E+00  0.0000E+00  0.0000E+00  0.0000E+00  0.0000E+00  0.0000E+00
    -54.083  0.0000E+00  0.0000E+00  0.0000E+00  0.0000E+00  0.0000E+00  0.0000E+00  0.0000E+00  0.0000E+00  0.0000E+00  0.0000E+00  0.0000E+00  0.0000E+00  0.0000E+00  0.0000E+00  0.0000E+00  0.0000E+00  0.0000E+00  0.0000E+00
    -53.812  0.0000E+00  0.0000E+00  0.0000E+00  0.0000E+00  0.0000E+00  0.0000E+00  0.0000E+00  0.0000E+00  0.0000E+00  0.0000E+00  0.0000E+00  0.0000E+00  0.0000E+00  0.0000E+00  0.0000E+00  0.0000E+00  0.0000E+00  0.0000E+00
    -53.541  0.0000E+00  0.0000E+00  0.0000E+00  0.0000E+00  0.0000E+00  0.0000E+00  0.0000E+00  0.0000E+00  0.0000E+00  0.0000E+00  0.0000E+00  0.0000E+00  0.0000E+00  0.0000E+00  0.0000E+00  0.0000E+00  0.0000E+00  0.0000E+00
    -53.270  0.0000E+00  0.0000E+00  0.0000E+00  0.0000E+00  0.0000E+00  0.0000E+00  0.0000E+00  0.0000E+00  0.0000E+00  0.0000E+00  0.0000E+00  0.0000E+00  0.0000E+00  0.0000E+00  0.0000E+00  0.0000E+00  0.0000E+00  0.0000E+00
    -52.999  0.0000E+00  0.0000E+00  0.0000E+00  0.0000E+00  0.0000E+00  0.0000E+00  0.0000E+00  0.0000E+00  0.0000E+00  0.0000E+00  0.0000E+00  0.0000E+00  0.0000E+00  0.0000E+00  0.0000E+00  0.0000E+00  0.0000E+00  0.0000E+00
    -52.728  0.0000E+00  0.0000E+00  0.0000E+00  0.0000E+00  0.0000E+00  0.0000E+00  0.0000E+00  0.0000E+00  0.0000E+00  0.0000E+00  0.0000E+00  0.0000E+00  0.0000E+00  0.0000E+00  0.0000E+00  0.0000E+00  0.0000E+00  0.0000E+00
    -52.457  0.0000E+00  0.0000E+00  0.0000E+00  0.0000E+00  0.0000E+00  0.0000E+00  0.0000E+00  0.0000E+00  0.0000E+00  0.0000E+00  0.0000E+00  0.0000E+00  0.0000E+00  0.0000E+00  0.0000E+00  0.0000E+00  0.0000E+00  0.0000E+00
    -52.186  0.0000E+00  0.0000E+00  0.0000E+00  0.0000E+00  0.0000E+00  0.0000E+00  0.0000E+00  0.0000E+00  0.0000E+00  0.0000E+00  0.0000E+00  0.0000E+00  0.0000E+00  0.0000E+00  0.0000E+00  0.0000E+00  0.0000E+00  0.0000E+00
    -51.915  0.0000E+00  0.0000E+00  0.0000E+00  0.0000E+00  0.0000E+00  0.0000E+00  0.0000E+00  0.0000E+00  0.0000E+00  0.0000E+00  0.0000E+00  0.0000E+00  0.0000E+00  0.0000E+00  0.0000E+00  0.0000E+00  0.0000E+00  0.0000E+00