   20   20   60    2
  0.2365477E+02  0.5237364E-09  0.5237364E-09  0.1991556E-08  0.5000000E-15
  1.000000000000000E-004
  CAR 
 unknown system                          
    252     34    168
 
  0.0000000E+00  0.0000000E+00  0.0000000E+00  0.1562500E-01
    1      -61.767579    -61.767579   1.000000   1.000000
    2      -61.767149    -61.767150   1.000000   1.000000
    3      -61.766712    -61.766712   1.000000   1.000000
    4      -61.695623    -61.695624   1.000000   1.000000
    5      -61.695365    -61.695366   1.000000   1.000000
    6      -61.695143    -61.695144   1.000000   1.000000
    7      -61.670907    -61.670907   1.000000   1.000000
    8      -61.670889    -61.670890   1.000000   1.000000
    9      -61.613674    -61.613674   1.000000   1.000000
   10      -61.602659    -61.602659   1.000000   1.000000
   11      -61.601831    -61.601831   1.000000   1.000000
   12      -61.601063    -61.601063   1.000000   1.000000
   13       -8.869422     -8.869422   1.000000   1.000000
   14       -7.735409     -7.735409   1.000000   1.000000
   15       -7.200425     -7.200425   1.000000   1.000000
   16       -7.036959     -7.036959   1.000000   1.000000
   17       -7.036892     -7.036892   1.000000   1.000000
   18       -7.036805     -7.036805   1.000000   1.000000
   19       -6.994255     -6.994255   1.000000   1.000000
   20       -6.994170     -6.994170   1.000000   1.000000
   21       -6.994059     -6.994058   1.000000   1.000000
   22       -6.779114     -6.779114   1.000000   1.000000
   23       -6.779018     -6.779017   1.000000   1.000000
   24       -6.778900     -6.778900   1.000000   1.000000
   25       -6.639291     -6.639291   1.000000   1.000000
   26       -6.639273     -6.639273   1.000000   1.000000
   27       -6.639250     -6.639250   1.000000   1.000000
   28       -6.548315     -6.548314   1.000000   1.000000
   29       -6.526488     -6.526488   1.000000   1.000000
   30       -6.526068     -6.526068   1.000000   1.000000
   31       -6.525690     -6.525690   1.000000   1.000000
   32       -6.312712     -6.312712   1.000000   1.000000
   33       -6.244988     -6.244988   1.000000   1.000000
   34       -6.244987     -6.244987   1.000000   1.000000
   35       -6.218681     -6.218681   1.000000   1.000000
   36       -6.218645     -6.218645   1.000000   1.000000
   37       -6.218632     -6.218632   1.000000   1.000000
   38       -6.192719     -6.192719   1.000000   1.000000
   39       -6.192716     -6.192716   1.000000   1.000000
   40       -5.982215     -5.982215   1.000000   1.000000
   41       -5.981959     -5.981959   1.000000   1.000000
   42       -5.981735     -5.981735   1.000000   1.000000
   43       -5.933457     -5.933457   1.000000   1.000000
   44       -5.933455     -5.933455   1.000000   1.000000
   45       -5.928893     -5.928893   1.000000   1.000000
   46       -5.897937     -5.897937   1.000000   1.000000
   47       -5.897703     -5.897703   1.000000   1.000000
   48       -5.897451     -5.897451   1.000000   1.000000
   49       -5.757102     -5.757102   1.000000   1.000000
   50       -5.757074     -5.757074   1.000000   1.000000
   51       -5.716857     -5.716857   1.000000   1.000000
   52       -5.716838     -5.716838   1.000000   1.000000
   53       -5.716801     -5.716801   1.000000   1.000000
   54       -5.682346     -5.682346   1.000000   1.000000
   55       -5.682175     -5.682174   1.000000   1.000000
   56       -5.682077     -5.682077   1.000000   1.000000
   57       -5.668578     -5.668577   1.000000   1.000000
   58       -5.668256     -5.668256   1.000000   1.000000
   59       -5.667943     -5.667943   1.000000   1.000000
   60       -5.611451     -5.611451   1.000000   1.000000
   61       -5.611443     -5.611443   1.000000   1.000000
   62       -5.547425     -5.547425   1.000000   1.000000
   63       -5.547416     -5.547416   1.000000   1.000000
   64       -5.547407     -5.547407   1.000000   1.000000
   65       -5.514460     -5.514460   1.000000   1.000000
   66       -5.514435     -5.514435   1.000000   1.000000
   67       -5.514403     -5.514403   1.000000   1.000000
   68       -5.434360     -5.434360   1.000000   1.000000
   69       -5.434360     -5.434360   1.000000   1.000000
   70       -5.413129     -5.413129   1.000000   1.000000
   71       -5.413106     -5.413106   1.000000   1.000000
   72       -5.413064     -5.413064   1.000000   1.000000
   73       -5.354184     -5.354184   1.000000   1.000000
   74       -5.354014     -5.354014   1.000000   1.000000
   75       -5.353897     -5.353897   1.000000   1.000000
   76       -5.113350     -5.113350   1.000000   1.000000
   77       -5.113339     -5.113339   1.000000   1.000000
   78       -5.113334     -5.113334   1.000000   1.000000
   79       -5.104308     -5.104307   1.000000   1.000000
   80       -4.564903     -4.564903   1.000000   1.000000
   81       -4.564056     -4.564055   1.000000   1.000000
   82       -4.563226     -4.563225   1.000000   1.000000
   83       -3.603792     -3.603792   1.000000   1.000000
   84       -3.603782     -3.603782   1.000000   1.000000
   85       -3.575579     -3.575579   1.000000   1.000000
   86       -2.773037     -2.773037   1.000000   1.000000
   87       -2.771098     -2.771098   1.000000   1.000000
   88       -2.769530     -2.769530   1.000000   1.000000
   89       -2.335930     -2.335930   1.000000   1.000000
   90       -2.335657     -2.335657   1.000000   1.000000
   91       -2.334824     -2.334824   1.000000   1.000000
   92       -1.938091     -1.938091   1.000000   1.000000
   93       -1.830308     -1.830308   1.000000   1.000000
   94       -1.830292     -1.830292   1.000000   1.000000
   95       -1.696868     -1.696868   1.000000   1.000000
   96       -1.696625     -1.696625   1.000000   1.000000
   97       -1.696557     -1.696557   1.000000   1.000000
   98       -1.417342     -1.417342   1.000000   1.000000
   99       -1.415745     -1.415745   1.000000   1.000000
  100       -1.414045     -1.414045   1.000000   1.000000
  101       -0.842973     -0.842973   1.000000   1.000000
  102       -0.842714     -0.842714   1.000000   1.000000
  103       -0.842290     -0.842290   1.000000   1.000000
  104       -0.830208     -0.830208   1.000000   1.000000
  105       -0.605952     -0.605952   1.000000   1.000000
  106       -0.605049     -0.605049   1.000000   1.000000
  107       -0.604289     -0.604289   1.000000   1.000000
  108       -0.600419     -0.600419   1.000000   1.000000
  109       -0.599197     -0.599197   1.000000   1.000000
  110       -0.598021     -0.598021   1.000000   1.000000
  111        0.053291      0.053291   1.000000   1.000000
  112        0.053299      0.053299   1.000000   1.000000
  113        0.148530      0.148530   1.000000   1.000000
  114        0.148595      0.148595   1.000000   1.000000
  115        0.148691      0.148691   1.000000   1.000000
  116        0.563372      0.563372   1.000000   1.000000
  117        0.680356      0.680355   1.000004   1.000004
  118        0.680768      0.680768   1.000004   1.000004
  119        0.681196      0.681195   1.000004   1.000004
  120        0.924662      0.924662   1.002925   1.002925
  121        0.924680      0.924680   1.002927   1.002926
  122        0.998204      0.998204   1.010511   1.010511
  123        0.998642      0.998642   1.010580   1.010580
  124        0.998781      0.998780   1.010602   1.010602
  125        1.402025      1.402024   0.409974   0.409977
  126        1.402365      1.402364   0.408561   0.408565
  127        1.402646      1.402646   0.407395   0.407398
  128        1.431393      1.431394   0.292620   0.292619
  129        1.432233      1.432233   0.289439   0.289438
  130        1.432596      1.432596   0.288066   0.288065
  131        2.538192      2.538192  -0.000000  -0.000000
  132        2.538214      2.538214  -0.000000  -0.000000
  133        2.538351      2.538351  -0.000000  -0.000000
  134        2.694941      2.694940  -0.000000  -0.000000
  135        3.144557      3.144557  -0.000000  -0.000000
  136        3.144675      3.144675  -0.000000  -0.000000
  137        3.145025      3.145025  -0.000000  -0.000000
  138        3.668797      3.668797  -0.000000  -0.000000
  139        3.669284      3.669284  -0.000000  -0.000000
  140        3.669976      3.669976  -0.000000  -0.000000
  141        4.965124      4.965124  -0.000000  -0.000000
  142        4.965867      4.965867  -0.000000  -0.000000
  143        4.966612      4.966612  -0.000000  -0.000000
  144        5.346095      5.346044  -0.000000  -0.000000
  145        5.716703      5.716696  -0.000000  -0.000000
  146        6.639264      6.639264  -0.000000  -0.000000
  147        6.639787      6.639787  -0.000000  -0.000000
  148        6.640869      6.640869  -0.000000  -0.000000
  149        7.638361      7.638361   0.000000   0.000000
  150        7.638803      7.638803   0.000000   0.000000
  151        7.639098      7.639098   0.000000   0.000000
  152        7.873530      7.873512   0.000000   0.000000
  153        8.273161      8.273161   0.000000   0.000000
  154        8.273553      8.273553   0.000000   0.000000
  155        8.274325      8.274325   0.000000   0.000000
  156        8.558476      8.558437   0.000000   0.000000
  157        9.034700      9.034700   0.000000   0.000000
  158        9.035450      9.035450   0.000000   0.000000
  159        9.035909      9.035909   0.000000   0.000000
  160       10.118792     10.118792   0.000000   0.000000
  161       10.119541     10.119541   0.000000   0.000000
  162       10.119642     10.119641   0.000000   0.000000
  163       11.323867     11.323857   0.000000   0.000000
  164       11.324240     11.324229   0.000000   0.000000
  165       11.324571     11.324560   0.000000   0.000000
  166       11.751052     11.751030   0.000000   0.000000
  167       12.123934     12.123932   0.000000   0.000000
  168       12.124078     12.124000   0.000000   0.000000
 
  0.1250000E+00 -0.2775558E-16  0.0000000E+00  0.3125000E-01
    1      -61.765276    -61.765277   1.000000   1.000000
    2      -61.764897    -61.764898   1.000000   1.000000
    3      -61.763306    -61.763306   1.000000   1.000000
    4      -61.697132    -61.697133   1.000000   1.000000
    5      -61.696794    -61.696795   1.000000   1.000000
    6      -61.694321    -61.694322   1.000000   1.000000
    7      -61.674609    -61.674610   1.000000   1.000000
    8      -61.671768    -61.671768   1.000000   1.000000
    9      -61.613378    -61.613378   1.000000   1.000000
   10      -61.602768    -61.602769   1.000000   1.000000
   11      -61.601725    -61.601726   1.000000   1.000000
   12      -61.601066    -61.601067   1.000000   1.000000
   13       -8.750503     -8.750502   1.000000   1.000000
   14       -7.631486     -7.631486   1.000000   1.000000
   15       -7.129475     -7.129475   1.000000   1.000000
   16       -7.022143     -7.022143   1.000000   1.000000
   17       -6.996688     -6.996688   1.000000   1.000000
   18       -6.996670     -6.996670   1.000000   1.000000
   19       -6.975657     -6.975657   1.000000   1.000000
   20       -6.950390     -6.950390   1.000000   1.000000
   21       -6.950313     -6.950313   1.000000   1.000000
   22       -6.759236     -6.759236   1.000000   1.000000
   23       -6.756398     -6.756398   1.000000   1.000000
   24       -6.756344     -6.756344   1.000000   1.000000
   25       -6.621280     -6.621280   1.000000   1.000000
   26       -6.600814     -6.600814   1.000000   1.000000
   27       -6.600810     -6.600810   1.000000   1.000000
   28       -6.511334     -6.511334   1.000000   1.000000
   29       -6.510639     -6.510639   1.000000   1.000000
   30       -6.510332     -6.510332   1.000000   1.000000
   31       -6.507748     -6.507748   1.000000   1.000000
   32       -6.282703     -6.282703   1.000000   1.000000
   33       -6.260765     -6.260765   1.000000   1.000000
   34       -6.216001     -6.216001   1.000000   1.000000
   35       -6.210044     -6.210044   1.000000   1.000000
   36       -6.210030     -6.210030   1.000000   1.000000
   37       -6.206995     -6.206995   1.000000   1.000000
   38       -6.204207     -6.204207   1.000000   1.000000
   39       -6.164014     -6.164014   1.000000   1.000000
   40       -6.000428     -6.000428   1.000000   1.000000
   41       -6.000226     -6.000226   1.000000   1.000000
   42       -5.974694     -5.974694   1.000000   1.000000
   43       -5.951972     -5.951972   1.000000   1.000000
   44       -5.914884     -5.914884   1.000000   1.000000
   45       -5.907463     -5.907463   1.000000   1.000000
   46       -5.907406     -5.907406   1.000000   1.000000
   47       -5.905591     -5.905591   1.000000   1.000000
   48       -5.892488     -5.892488   1.000000   1.000000
   49       -5.764803     -5.764803   1.000000   1.000000
   50       -5.740353     -5.740352   1.000000   1.000000
   51       -5.740342     -5.740342   1.000000   1.000000
   52       -5.732177     -5.732176   1.000000   1.000000
   53       -5.713691     -5.713691   1.000000   1.000000
   54       -5.703601     -5.703601   1.000000   1.000000
   55       -5.687040     -5.687040   1.000000   1.000000
   56       -5.686951     -5.686951   1.000000   1.000000
   57       -5.681222     -5.681222   1.000000   1.000000
   58       -5.616095     -5.616095   1.000000   1.000000
   59       -5.613697     -5.613697   1.000000   1.000000
   60       -5.563608     -5.563608   1.000000   1.000000
   61       -5.563579     -5.563579   1.000000   1.000000
   62       -5.557515     -5.557514   1.000000   1.000000
   63       -5.556941     -5.556941   1.000000   1.000000
   64       -5.543803     -5.543803   1.000000   1.000000
   65       -5.537991     -5.537991   1.000000   1.000000
   66       -5.535910     -5.535910   1.000000   1.000000
   67       -5.535889     -5.535889   1.000000   1.000000
   68       -5.465163     -5.465163   1.000000   1.000000
   69       -5.454219     -5.454219   1.000000   1.000000
   70       -5.454206     -5.454206   1.000000   1.000000
   71       -5.445367     -5.445366   1.000000   1.000000
   72       -5.438746     -5.438746   1.000000   1.000000
   73       -5.408211     -5.408211   1.000000   1.000000
   74       -5.408127     -5.408127   1.000000   1.000000
   75       -5.387800     -5.387800   1.000000   1.000000
   76       -5.169191     -5.169191   1.000000   1.000000
   77       -5.169185     -5.169185   1.000000   1.000000
   78       -5.146662     -5.146662   1.000000   1.000000
   79       -4.966308     -4.966308   1.000000   1.000000
   80       -4.519319     -4.519319   1.000000   1.000000
   81       -4.517711     -4.517710   1.000000   1.000000
   82       -4.515684     -4.515684   1.000000   1.000000
   83       -3.661524     -3.661524   1.000000   1.000000
   84       -3.525386     -3.525385   1.000000   1.000000
   85       -3.516408     -3.516408   1.000000   1.000000
   86       -2.912033     -2.912033   1.000000   1.000000
   87       -2.779399     -2.779399   1.000000   1.000000
   88       -2.776544     -2.776544   1.000000   1.000000
   89       -2.586714     -2.586714   1.000000   1.000000
   90       -2.410043     -2.410043   1.000000   1.000000
   91       -2.408651     -2.408651   1.000000   1.000000
   92       -2.317007     -2.317007   1.000000   1.000000
   93       -2.030195     -2.030194   1.000000   1.000000
   94       -1.936507     -1.936507   1.000000   1.000000
   95       -1.936335     -1.936335   1.000000   1.000000
   96       -1.850086     -1.850086   1.000000   1.000000
   97       -1.820581     -1.820581   1.000000   1.000000
   98       -1.658399     -1.658399   1.000000   1.000000
   99       -1.384639     -1.384639   1.000000   1.000000
  100       -1.384134     -1.384134   1.000000   1.000000
  101       -1.182981     -1.182981   1.000000   1.000000
  102       -1.114378     -1.114378   1.000000   1.000000
  103       -1.113907     -1.113907   1.000000   1.000000
  104       -0.972636     -0.972636   1.000000   1.000000
  105       -0.827044     -0.827044   1.000000   1.000000
  106       -0.826772     -0.826772   1.000000   1.000000
  107       -0.743058     -0.743058   1.000000   1.000000
  108       -0.542184     -0.542184   1.000000   1.000000
  109       -0.411622     -0.411622   1.000000   1.000000
  110       -0.410752     -0.410752   1.000000   1.000000
  111        0.017300      0.017299   1.000000   1.000000
  112        0.098136      0.098135   1.000000   1.000000
  113        0.118373      0.118373   1.000000   1.000000
  114        0.372407      0.372407   1.000000   1.000000
  115        0.372517      0.372517   1.000000   1.000000
  116        0.601160      0.601160   1.000000   1.000000
  117        0.618844      0.618844   1.000001   1.000001
  118        0.619082      0.619081   1.000001   1.000001
  119        0.691445      0.691444   1.000006   1.000006
  120        0.916175      0.916174   1.002469   1.002469
  121        0.946303      0.946302   1.004419   1.004419
  122        0.946537      0.946537   1.004438   1.004438
  123        1.007446      1.007446   1.012032   1.012032
  124        1.088606      1.088606   1.029391   1.029391
  125        1.166649      1.166649   1.030938   1.030938
  126        1.167306      1.167306   1.030725   1.030725
  127        1.304150      1.304150   0.798820   0.798819
  128        1.343355      1.343354   0.654660   0.654663
  129        1.832749      1.832749  -0.003153  -0.003153
  130        1.833164      1.833164  -0.003127  -0.003127
  131        2.655784      2.655784  -0.000000  -0.000000
  132        2.716394      2.716394  -0.000000  -0.000000
  133        2.716592      2.716592  -0.000000  -0.000000
  134        2.838245      2.838244  -0.000000  -0.000000
  135        3.210346      3.210346  -0.000000  -0.000000
  136        3.210472      3.210473  -0.000000  -0.000000
  137        3.409011      3.409011  -0.000000  -0.000000
  138        4.032891      4.032891  -0.000000  -0.000000
  139        4.033535      4.033535  -0.000000  -0.000000
  140        4.040226      4.040226  -0.000000  -0.000000
  141        5.083978      5.083978  -0.000000  -0.000000
  142        5.084195      5.084195  -0.000000  -0.000000
  143        5.277693      5.277693  -0.000000  -0.000000
  144        5.464602      5.464552  -0.000000  -0.000000
  145        5.812738      5.812730  -0.000000  -0.000000
  146        6.557863      6.557863  -0.000000  -0.000000
  147        6.719827      6.719827  -0.000000  -0.000000
  148        6.720708      6.720708  -0.000000  -0.000000
  149        7.724292      7.724292   0.000000   0.000000
  150        7.724955      7.724955   0.000000   0.000000
  151        7.725796      7.725796   0.000000   0.000000
  152        7.992968      7.992951   0.000000   0.000000
  153        8.364033      8.364033   0.000000   0.000000
  154        8.364987      8.364987   0.000000   0.000000
  155        8.489995      8.489993   0.000000   0.000000
  156        8.656687      8.656648   0.000000   0.000000
  157        9.252706      9.252705   0.000000   0.000000
  158        9.270218      9.270218   0.000000   0.000000
  159        9.270793      9.270792   0.000000   0.000000
  160       10.173648     10.173647   0.000000   0.000000
  161       10.173843     10.173842   0.000000   0.000000
  162       10.414260     10.414256   0.000000   0.000000
  163       10.977385     10.977342   0.000000   0.000000
  164       11.279027     11.279022   0.000000   0.000000
  165       11.346066     11.346066   0.000000   0.000000
  166       11.346110     11.346109   0.000000   0.000000
  167       11.481491     11.481469   0.000000   0.000000
  168       11.481831     11.481809   0.000000   0.000000
 
  0.2500000E+00 -0.5551115E-16  0.0000000E+00  0.3125000E-01
    1      -61.759619    -61.759620   1.000000   1.000000
    2      -61.759172    -61.759173   1.000000   1.000000
    3      -61.752878    -61.752879   1.000000   1.000000
    4      -61.702684    -61.702685   1.000000   1.000000
    5      -61.702280    -61.702281   1.000000   1.000000
    6      -61.691356    -61.691357   1.000000   1.000000
    7      -61.684513    -61.684514   1.000000   1.000000
    8      -61.674156    -61.674157   1.000000   1.000000
    9      -61.611887    -61.611888   1.000000   1.000000
   10      -61.603559    -61.603559   1.000000   1.000000
   11      -61.601698    -61.601698   1.000000   1.000000
   12      -61.601106    -61.601106   1.000000   1.000000
   13       -8.401301     -8.401301   1.000000   1.000000
   14       -7.343801     -7.343801   1.000000   1.000000
   15       -6.990835     -6.990835   1.000000   1.000000
   16       -6.938034     -6.938034   1.000000   1.000000
   17       -6.924329     -6.924329   1.000000   1.000000
   18       -6.880638     -6.880637   1.000000   1.000000
   19       -6.880603     -6.880603   1.000000   1.000000
   20       -6.826761     -6.826761   1.000000   1.000000
   21       -6.826669     -6.826669   1.000000   1.000000
   22       -6.702483     -6.702483   1.000000   1.000000
   23       -6.697474     -6.697474   1.000000   1.000000
   24       -6.697407     -6.697407   1.000000   1.000000
   25       -6.572358     -6.572358   1.000000   1.000000
   26       -6.490104     -6.490104   1.000000   1.000000
   27       -6.490074     -6.490074   1.000000   1.000000
   28       -6.468458     -6.468458   1.000000   1.000000
   29       -6.465947     -6.465947   1.000000   1.000000
   30       -6.465664     -6.465664   1.000000   1.000000
   31       -6.436712     -6.436711   1.000000   1.000000
   32       -6.305403     -6.305403   1.000000   1.000000
   33       -6.265886     -6.265886   1.000000   1.000000
   34       -6.208365     -6.208365   1.000000   1.000000
   35       -6.196863     -6.196863   1.000000   1.000000
   36       -6.196852     -6.196852   1.000000   1.000000
   37       -6.168671     -6.168671   1.000000   1.000000
   38       -6.132787     -6.132787   1.000000   1.000000
   39       -6.081863     -6.081863   1.000000   1.000000
   40       -6.037769     -6.037769   1.000000   1.000000
   41       -6.037487     -6.037487   1.000000   1.000000
   42       -5.996264     -5.996264   1.000000   1.000000
   43       -5.963263     -5.963262   1.000000   1.000000
   44       -5.954178     -5.954178   1.000000   1.000000
   45       -5.950327     -5.950327   1.000000   1.000000
   46       -5.950278     -5.950278   1.000000   1.000000
   47       -5.942568     -5.942568   1.000000   1.000000
   48       -5.833014     -5.833014   1.000000   1.000000
   49       -5.800263     -5.800263   1.000000   1.000000
   50       -5.800249     -5.800249   1.000000   1.000000
   51       -5.777771     -5.777771   1.000000   1.000000
   52       -5.768626     -5.768626   1.000000   1.000000
   53       -5.732981     -5.732981   1.000000   1.000000
   54       -5.732967     -5.732967   1.000000   1.000000
   55       -5.725302     -5.725302   1.000000   1.000000
   56       -5.707041     -5.707041   1.000000   1.000000
   57       -5.657231     -5.657231   1.000000   1.000000
   58       -5.657173     -5.657173   1.000000   1.000000
   59       -5.620351     -5.620351   1.000000   1.000000
   60       -5.610820     -5.610820   1.000000   1.000000
   61       -5.609930     -5.609930   1.000000   1.000000
   62       -5.609927     -5.609927   1.000000   1.000000
   63       -5.558706     -5.558705   1.000000   1.000000
   64       -5.545617     -5.545617   1.000000   1.000000
   65       -5.541522     -5.541522   1.000000   1.000000
   66       -5.541515     -5.541515   1.000000   1.000000
   67       -5.523887     -5.523887   1.000000   1.000000
   68       -5.495328     -5.495328   1.000000   1.000000
   69       -5.495288     -5.495288   1.000000   1.000000
   70       -5.480440     -5.480440   1.000000   1.000000
   71       -5.465967     -5.465967   1.000000   1.000000
   72       -5.453685     -5.453684   1.000000   1.000000
   73       -5.450991     -5.450991   1.000000   1.000000
   74       -5.300268     -5.300268   1.000000   1.000000
   75       -5.300263     -5.300263   1.000000   1.000000
   76       -5.240359     -5.240359   1.000000   1.000000
   77       -5.231727     -5.231727   1.000000   1.000000
   78       -5.231078     -5.231078   1.000000   1.000000
   79       -4.664662     -4.664662   1.000000   1.000000
   80       -4.431669     -4.431668   1.000000   1.000000
   81       -4.395853     -4.395853   1.000000   1.000000
   82       -4.393853     -4.393853   1.000000   1.000000
   83       -4.049089     -4.049089   1.000000   1.000000
   84       -3.790911     -3.790910   1.000000   1.000000
   85       -3.381413     -3.381412   1.000000   1.000000
   86       -3.261840     -3.261840   1.000000   1.000000
   87       -3.017713     -3.017713   1.000000   1.000000
   88       -2.816495     -2.816495   1.000000   1.000000
   89       -2.814935     -2.814935   1.000000   1.000000
   90       -2.743969     -2.743969   1.000000   1.000000
   91       -2.594514     -2.594514   1.000000   1.000000
   92       -2.591130     -2.591129   1.000000   1.000000
   93       -2.416618     -2.416618   1.000000   1.000000
   94       -2.276604     -2.276604   1.000000   1.000000
   95       -2.276414     -2.276414   1.000000   1.000000
   96       -2.264229     -2.264229   1.000000   1.000000
   97       -1.906114     -1.906114   1.000000   1.000000
   98       -1.873552     -1.873552   1.000000   1.000000
   99       -1.873258     -1.873258   1.000000   1.000000
  100       -1.559046     -1.559046   1.000000   1.000000
  101       -1.458344     -1.458344   1.000000   1.000000
  102       -1.327342     -1.327342   1.000000   1.000000
  103       -1.294412     -1.294412   1.000000   1.000000
  104       -1.294373     -1.294373   1.000000   1.000000
  105       -0.987233     -0.987233   1.000000   1.000000
  106       -0.922348     -0.922348   1.000000   1.000000
  107       -0.921634     -0.921634   1.000000   1.000000
  108       -0.558319     -0.558319   1.000000   1.000000
  109       -0.497508     -0.497509   1.000000   1.000000
  110       -0.294143     -0.294144   1.000000   1.000000
  111       -0.293343     -0.293343   1.000000   1.000000
  112       -0.069050     -0.069051   1.000000   1.000000
  113        0.228178      0.228178   1.000000   1.000000
  114        0.437370      0.437369   1.000000   1.000000
  115        0.438167      0.438167   1.000000   1.000000
  116        0.488973      0.488973   1.000000   1.000000
  117        0.489920      0.489920   1.000000   1.000000
  118        0.490431      0.490431   1.000000   1.000000
  119        0.590312      0.590312   1.000000   1.000000
  120        0.590389      0.590389   1.000000   1.000000
  121        0.619052      0.619052   1.000001   1.000001
  122        0.720113      0.720113   1.000016   1.000016
  123        0.828929      0.828929   1.000338   1.000338
  124        0.891899      0.891899   1.001484   1.001484
  125        1.179671      1.179670   1.025610   1.025610
  126        1.567360      1.567360  -0.016813  -0.016813
  127        1.625529      1.625529  -0.035458  -0.035458
  128        1.625957      1.625957  -0.035457  -0.035457
  129        2.224857      2.224857  -0.000000  -0.000000
  130        2.225209      2.225209  -0.000000  -0.000000
  131        2.804964      2.804965  -0.000000  -0.000000
  132        3.096300      3.096300  -0.000000  -0.000000
  133        3.096335      3.096335  -0.000000  -0.000000
  134        3.261002      3.261000  -0.000000  -0.000000
  135        3.818017      3.818017  -0.000000  -0.000000
  136        3.818283      3.818283  -0.000000  -0.000000
  137        4.115285      4.115285  -0.000000  -0.000000
  138        4.537957      4.537957  -0.000000  -0.000000
  139        4.538501      4.538501  -0.000000  -0.000000
  140        5.032995      5.032995  -0.000000  -0.000000
  141        5.594490      5.594490  -0.000000  -0.000000
  142        5.594833      5.594833  -0.000000  -0.000000
  143        5.724189      5.724189  -0.000000  -0.000000
  144        5.818273      5.818223  -0.000000  -0.000000
  145        6.102322      6.102313  -0.000000  -0.000000
  146        6.932588      6.932588   0.000000   0.000000
  147        6.934250      6.934250   0.000000   0.000000
  148        6.947458      6.947457   0.000000   0.000000
  149        7.718538      7.718537   0.000000   0.000000
  150        7.941248      7.941248   0.000000   0.000000
  151        7.941395      7.941395   0.000000   0.000000
  152        8.348218      8.348201   0.000000   0.000000
  153        8.836700      8.836698   0.000000   0.000000
  154        8.838001      8.838000   0.000000   0.000000
  155        8.952314      8.952276   0.000000   0.000000
  156        8.960323      8.960320   0.000000   0.000000
  157        9.308662      9.308662   0.000000   0.000000
  158        9.308821      9.308821   0.000000   0.000000
  159        9.524515      9.524475   0.000000   0.000000
  160        9.580312      9.580312   0.000000   0.000000
  161        9.580955      9.580955   0.000000   0.000000
  162        9.901610      9.901597   0.000000   0.000000
  163       10.583669     10.583666   0.000000   0.000000
  164       10.584606     10.584606   0.000000   0.000000
  165       10.880821     10.880825   0.000000   0.000000
  166       10.881217     10.881209   0.000000   0.000000
  167       11.173917     11.173913   0.000000   0.000000
  168       11.334124     11.333950   0.000000   0.000000
 
  0.3750000E+00 -0.1110223E-15  0.0000000E+00  0.3125000E-01
    1      -61.752967    -61.752967   1.000000   1.000000
    2      -61.752383    -61.752383   1.000000   1.000000
    3      -61.737174    -61.737175   1.000000   1.000000
    4      -61.709642    -61.709642   1.000000   1.000000
    5      -61.709102    -61.709102   1.000000   1.000000