    2    2    1    1
  0.5000000E+03  0.1000000E-08  0.1000000E-08  0.1000000E-08  0.5000000E-15
  1.000000000000000E-004
  CAR 
 unknown system                          
     10      6     12
 
  0.0000000E+00  0.0000000E+00  0.0000000E+00  0.1250000E+00
    1      -29.112395   1.000000
    2      -13.917407   1.000000
    3      -11.603559   1.000000
    4      -11.603559   1.000000
    5       -8.917125   1.000000
    6       -2.025761   0.000000
    7       -2.025761   0.000000
    8       -0.204466   0.000000
    9        1.065857   0.000000
   10        1.185073   0.000000
   11        1.185073   0.000000
   12        1.311288   0.000000
 
  0.5000000E+00  0.0000000E+00  0.0000000E+00  0.2500000E+00
    1      -29.112831   1.000000
    2      -13.917926   1.000000
    3      -11.604276   1.000000
    4      -11.604241   1.000000
    5       -8.917780   1.000000
    6       -2.030537   0.000000
    7       -2.027186   0.000000
    8        0.087387   0.000000
    9        0.269177   0.000000
   10        1.260654   0.000000
   11        1.391075   0.000000
   12        1.634772   0.000000
 
  0.5000000E+00  0.5000000E+00  0.0000000E+00  0.1250000E+00
    1      -29.112723   1.000000
    2      -13.917923   1.000000
    3      -11.603870   1.000000
    4      -11.603870   1.000000
    5       -8.917742   1.000000
    6       -2.030281   0.000000
    7       -2.030281   0.000000
    8        0.365609   0.000000
    9        0.574823   0.000000
   10        0.574823   0.000000
   11        0.696663   0.000000
   12        1.414146   0.000000
 
  0.0000000E+00  0.0000000E+00  0.5000000E+00  0.1250000E+00
    1      -29.112824   1.000000
    2      -13.918014   1.000000
    3      -11.604183   1.000000
    4      -11.604183   1.000000
    5       -8.917881   1.000000
    6       -2.028097   0.000000
    7       -2.028097   0.000000
    8        0.035094   0.000000
    9        0.262006   0.000000
   10        1.387583   0.000000
   11        1.387583   0.000000
   12        1.530377   0.000000
 
  0.5000000E+00  0.0000000E+00  0.5000000E+00  0.2500000E+00
    1      -29.112843   1.000000
    2      -13.917918   1.000000
    3      -11.604372   1.000000
    4      -11.604249   1.000000
    5       -8.917750   1.000000
    6       -2.030636   0.000000
    7       -2.027848   0.000000
    8        0.299955   0.000000
    9        0.541471   0.000000
   10        0.541667   0.000000
   11        0.771330   0.000000
   12        1.564248   0.000000
 
  0.5000000E+00  0.5000000E+00  0.5000000E+00  0.1250000E+00
    1      -29.112380   1.000000
    2      -13.917491   1.000000
    3      -11.603278   1.000000
    4      -11.603278   1.000000
    5       -8.917169   1.000000
    6       -2.029751   0.000000
    7       -2.029751   0.000000
    8        0.545559   0.000000
    9        0.808873   0.000000
   10        0.808873   0.000000
   11        1.015076   0.000000
   12        1.135199   0.000000
