       N       E                     dE             d eps       ncg     rms          rms(c)
DAV:   1     0.543341479174E+02    0.54334E+02   -0.21056E+03   192   0.347E+02
DAV:   2    -0.111212639165E+02   -0.65455E+02   -0.63397E+02   228   0.104E+02
DAV:   3    -0.155789661237E+02   -0.44577E+01   -0.44577E+01   252   0.348E+01
DAV:   4    -0.155909245728E+02   -0.11958E-01   -0.11958E-01   156   0.180E+00
DAV:   5    -0.155910034670E+02   -0.78894E-04   -0.78894E-04   192   0.141E-01    0.689E+00
DAV:   6    -0.149579967539E+02    0.63301E+00   -0.35250E+00   144   0.995E+00    0.373E+00
DAV:   7    -0.148287839324E+02    0.12921E+00   -0.68830E-01   168   0.393E+00    0.194E+00
DAV:   8    -0.147935352711E+02    0.35249E-01   -0.15181E-01   168   0.236E+00    0.503E-01
DAV:   9    -0.147929206685E+02    0.61460E-03   -0.74759E-03   180   0.504E-01    0.111E-01
DAV:  10    -0.147936336921E+02   -0.71302E-03   -0.11556E-03   168   0.196E-01    0.361E-02
DAV:  11    -0.147954182561E+02   -0.17846E-02   -0.49523E-04   144   0.939E-02    0.185E-02
DAV:  12    -0.147961554498E+02   -0.73719E-03   -0.83552E-05   216   0.388E-02    0.113E-02
DAV:  13    -0.147971503219E+02   -0.99487E-03   -0.14093E-04   180   0.391E-02    0.586E-03
DAV:  14    -0.147974799457E+02   -0.32962E-03   -0.25409E-05   168   0.189E-02    0.392E-03
DAV:  15    -0.147976419740E+02   -0.16203E-03   -0.12079E-05   192   0.134E-02    0.179E-03
DAV:  16    -0.147976884689E+02   -0.46495E-04   -0.18073E-06   180   0.601E-03
   1 F= -.14797688E+02 E0= -.14797688E+02  d E =-.143322E-13
