       N       E                     dE             d eps       ncg     rms          rms(c)
DAV:   1     0.216610038479E+04    0.21661E+04   -0.11438E+05 25152   0.166E+03
DAV:   2     0.179443944808E+03   -0.19867E+04   -0.18858E+04 22848   0.460E+02
DAV:   3    -0.384690513952E+02   -0.21791E+03   -0.21314E+03 25440   0.161E+02
DAV:   4    -0.443592507250E+02   -0.58902E+01   -0.58806E+01 25608   0.300E+01
DAV:   5    -0.444102120586E+02   -0.50961E-01   -0.50960E-01 29520   0.229E+00    0.340E+01
RMM:   6    -0.418792771971E+02    0.25309E+01   -0.54199E+01 22883   0.265E+01    0.368E+01
RMM:   7    -0.432829356380E+02   -0.14037E+01   -0.17917E+01 22906   0.112E+01    0.448E+01
RMM:   8    -0.395395187468E+02    0.37434E+01   -0.81360E+00 23077   0.889E+00    0.220E+01
RMM:   9    -0.368810557085E+02    0.26585E+01   -0.80017E-01 23545   0.290E+00    0.108E+01
RMM:  10    -0.370888759140E+02   -0.20782E+00   -0.10890E+00 22900   0.285E+00    0.652E+00
RMM:  11    -0.379362339646E+02   -0.84736E+00   -0.23143E-01 23086   0.125E+00    0.485E+00
RMM:  12    -0.393650522905E+02   -0.14288E+01   -0.53712E-01 23425   0.130E+00    0.400E+00
RMM:  13    -0.403767084066E+02   -0.10117E+01   -0.45765E-01 22884   0.158E+00    0.102E+01
RMM:  14    -0.405322840595E+02   -0.15558E+00   -0.30950E-01 22889   0.134E+00    0.394E+00
RMM:  15    -0.411193191564E+02   -0.58704E+00   -0.36840E-01 22938   0.142E+00    0.688E+00
RMM:  16    -0.416088791798E+02   -0.48956E+00   -0.48506E-01 23046   0.149E+00    0.387E+00
RMM:  17    -0.416258170357E+02   -0.16938E-01   -0.92339E-02 22884   0.743E-01    0.218E+00
RMM:  18    -0.417349176965E+02   -0.10910E+00   -0.44691E-02 23387   0.427E-01    0.814E-01
RMM:  19    -0.418207866855E+02   -0.85869E-01   -0.26292E-02 23164   0.288E-01    0.475E-01
RMM:  20    -0.418578582029E+02   -0.37072E-01   -0.47060E-03 18991   0.115E-01    0.249E-01
RMM:  21    -0.418745541201E+02   -0.16696E-01   -0.12396E-03 16963   0.537E-02    0.241E-01
RMM:  22    -0.418972247586E+02   -0.22671E-01   -0.21896E-03 17384   0.727E-02    0.310E-01
RMM:  23    -0.418902044204E+02    0.70203E-02   -0.41260E-04 16296   0.550E-02    0.275E-01
RMM:  24    -0.418868691489E+02    0.33353E-02   -0.47976E-04 16303   0.494E-02    0.209E-01
RMM:  25    -0.419034192229E+02   -0.16550E-01   -0.26550E-03 17832   0.895E-02    0.105E-01
RMM:  26    -0.419118230775E+02   -0.84039E-02   -0.75782E-04 16828   0.477E-02    0.660E-02
RMM:  27    -0.419215575666E+02   -0.97345E-02   -0.11825E-03 16601   0.461E-02    0.540E-02
RMM:  28    -0.419237780517E+02   -0.22205E-02   -0.40253E-04 15377   0.369E-02    0.241E-02
RMM:  29    -0.419245001013E+02   -0.72205E-03   -0.15295E-04 11969   0.182E-02    0.151E-02
RMM:  30    -0.419248666949E+02   -0.36659E-03   -0.64715E-05  8913   0.959E-03    0.697E-03
RMM:  31    -0.419250876259E+02   -0.22093E-03   -0.36135E-05  7904   0.703E-03    0.557E-03
RMM:  32    -0.419251777472E+02   -0.90121E-04   -0.15564E-05  7003   0.564E-03
   1 F= -.41906387E+02 E0= -.41918976E+02  d E =-.419064E+02  mag=     0.0005
       N       E                     dE             d eps       ncg     rms          rms(c)
DAV:   1    -0.414478754860E+02    0.47721E+00   -0.61545E+01 28608   0.552E+01    0.182E+00
RMM:   2    -0.422766820720E+02   -0.82881E+00   -0.83148E+00 24047   0.583E+00    0.689E-01
RMM:   3    -0.421640882710E+02    0.11259E+00   -0.37948E-01 23538   0.130E+00    0.291E+00
RMM:   4    -0.421162641705E+02    0.47824E-01   -0.64791E-02 22719   0.558E-01    0.680E-01
RMM:   5    -0.421179126232E+02   -0.16485E-02   -0.50897E-03 19120   0.156E-01    0.555E-01
RMM:   6    -0.421177223535E+02    0.19027E-03   -0.84298E-04 16958   0.799E-02    0.458E-01
RMM:   7    -0.421183638358E+02   -0.64148E-03   -0.12450E-03 17317   0.976E-02    0.495E-01
RMM:   8    -0.421182214749E+02    0.14236E-03   -0.18692E-03 18709   0.137E-01    0.125E-01
RMM:   9    -0.421181793610E+02    0.42114E-04   -0.14660E-04 13922   0.403E-02
   2 F= -.42099174E+02 E0= -.42112171E+02  d E =-.192788E+00  mag=     0.0012
       N       E                     dE             d eps       ncg     rms          rms(c)
DAV:   1    -0.369550121997E+02    0.51632E+01   -0.59381E+02 28056   0.166E+02    0.575E+00
RMM:   2    -0.439028284372E+02   -0.69478E+01   -0.69670E+01 24760   0.197E+01    0.456E+00
RMM:   3    -0.433520947461E+02    0.55073E+00   -0.35980E+00 23774   0.463E+00    0.119E+01
RMM:   4    -0.425542327403E+02    0.79786E+00   -0.81772E-01 23223   0.227E+00    0.244E+00
RMM:   5    -0.425711457050E+02   -0.16913E-01   -0.76417E-02 23568   0.682E-01    0.225E+00
RMM:   6    -0.425584541796E+02    0.12692E-01   -0.20630E-02 19967   0.355E-01    0.151E+00
RMM:   7    -0.425560141982E+02    0.24400E-02   -0.37983E-03 20427   0.180E-01    0.115E+00
RMM:   8    -0.425590762383E+02   -0.30620E-02   -0.81280E-03 22803   0.302E-01    0.861E-01
RMM:   9    -0.425595784617E+02   -0.50222E-03   -0.83609E-03 19201   0.243E-01    0.743E-01
RMM:  10    -0.425575442242E+02    0.20342E-02   -0.23875E-03 20158   0.154E-01    0.220E-01
RMM:  11    -0.425572772348E+02    0.26699E-03   -0.35202E-04 16245   0.595E-02    0.153E-01
RMM:  12    -0.425574210267E+02   -0.14379E-03   -0.37640E-04 15883   0.516E-02    0.233E-01
RMM:  13    -0.425571803132E+02    0.24071E-03   -0.19139E-04 15144   0.417E-02    0.347E-02
RMM:  14    -0.425571964705E+02   -0.16157E-04   -0.25276E-05 12854   0.156E-02
   3 F= -.42537968E+02 E0= -.42545246E+02  d E =-.631581E+00  mag=     0.0021
       N       E                     dE             d eps       ncg     rms          rms(c)
DAV:   1    -0.203226387736E+02    0.22235E+02   -0.29216E+03 29352   0.339E+02    0.996E+00
RMM:   2    -0.537658065822E+02   -0.33443E+02   -0.32103E+02 24307   0.500E+01    0.202E+01
RMM:   3    -0.423596176076E+02    0.11406E+02   -0.11711E+01 23767   0.107E+01    0.397E+00
RMM:   4    -0.424197183585E+02   -0.60101E-01   -0.97214E-01 23838   0.260E+00    0.514E+00
RMM:   5    -0.421683376007E+02    0.25138E+00   -0.13615E-01 23525   0.111E+00    0.220E+00
RMM:   6    -0.421272221367E+02    0.41115E-01   -0.92645E-02 23363   0.798E-01    0.227E+00
RMM:   7    -0.421340846898E+02   -0.68626E-02   -0.69628E-02 22918   0.700E-01    0.261E+00
RMM:   8    -0.421108663073E+02    0.23218E-01   -0.44171E-02 23068   0.589E-01    0.891E-01
RMM:   9    -0.421087045945E+02    0.21617E-02   -0.61780E-03 21956   0.244E-01    0.488E-01
RMM:  10    -0.421079382383E+02    0.76636E-03   -0.22549E-03 17821   0.128E-01    0.285E-01
RMM:  11    -0.421077926019E+02    0.14564E-03   -0.52723E-04 17366   0.792E-02    0.161E-01
RMM:  12    -0.421076843065E+02    0.10830E-03   -0.12872E-04 14558   0.368E-02    0.638E-02
RMM:  13    -0.421077014097E+02   -0.17103E-04   -0.70107E-05 12694   0.263E-02
   4 F= -.42089747E+02 E0= -.42088672E+02  d E =-.183360E+00  mag=    -0.0002
       N       E                     dE             d eps       ncg     rms          rms(c)
DAV:   1    -0.274135625572E+02    0.14694E+02   -0.15420E+03 27120   0.257E+02    0.114E+01
RMM:   2    -0.523987690686E+02   -0.24985E+02   -0.20769E+02 25075   0.420E+01    0.241E+01
RMM:   3    -0.427931662519E+02    0.96056E+01   -0.12107E+01 23401   0.961E+00    0.527E+00
RMM:   4    -0.428880408694E+02   -0.94875E-01   -0.11700E+00 24713   0.235E+00    0.592E+00
RMM:   5    -0.426846773529E+02    0.20336E+00   -0.16487E-01 23536   0.107E+00    0.324E+00
RMM:   6    -0.427122276962E+02   -0.27550E-01   -0.68234E-02 23131   0.736E-01    0.352E+00
RMM:   7    -0.426922091115E+02    0.20019E-01   -0.59334E-02 22186   0.636E-01    0.278E+00
RMM:   8    -0.426632109077E+02    0.28998E-01   -0.39281E-02 22913   0.551E-01    0.794E-01
RMM:   9    -0.426593033399E+02    0.39076E-02   -0.52574E-03 22904   0.215E-01    0.390E-01
RMM:  10    -0.426601595996E+02   -0.85626E-03   -0.23162E-03 17923   0.129E-01    0.596E-01
RMM:  11    -0.426588258808E+02    0.13337E-02   -0.12673E-03 17496   0.102E-01    0.251E-01
RMM:  12    -0.426585134474E+02    0.31243E-03   -0.43725E-04 16797   0.786E-02    0.103E-01
RMM:  13    -0.426585679895E+02   -0.54542E-04   -0.15552E-04 14930   0.378E-02
   5 F= -.42640160E+02 E0= -.42644988E+02  d E =-.733773E+00  mag=    -0.0002
       N       E                     dE             d eps       ncg     rms          rms(c)
DAV:   1    -0.421900943435E+02    0.46842E+00   -0.50459E+01 28896   0.499E+01    0.144E+00
RMM:   2    -0.428165786572E+02   -0.62648E+00   -0.62132E+00 24049   0.527E+00    0.128E+00
RMM:   3    -0.427430855846E+02    0.73493E-01   -0.29952E-01 23228   0.126E+00    0.336E+00
RMM:   4    -0.426727518538E+02    0.70334E-01   -0.59814E-02 23063   0.601E-01    0.535E-01
RMM:   5    -0.426752680138E+02   -0.25162E-02   -0.38506E-03 19717   0.154E-01    0.473E-01
RMM:   6    -0.426751065000E+02    0.16151E-03   -0.16005E-03 17506   0.104E-01    0.442E-01
RMM:   7    -0.426749053684E+02    0.20113E-03   -0.88491E-04 17276   0.904E-02    0.223E-01
RMM:   8    -0.426749978692E+02   -0.92501E-04   -0.75324E-04 18405   0.921E-02
   6 F= -.42655987E+02 E0= -.42659752E+02  d E =-.749601E+00  mag=    -0.0001
       N       E                     dE             d eps       ncg     rms          rms(c)
DAV:   1    -0.424278923097E+02    0.24701E+00   -0.59216E+01 24720   0.345E+01    0.116E+00
RMM:   2    -0.428067359454E+02   -0.37884E+00   -0.37228E+00 26243   0.415E+00    0.141E+00
RMM:   3    -0.427684024851E+02    0.38333E-01   -0.19717E-01 22929   0.105E+00    0.247E+00
RMM:   4    -0.427342241042E+02    0.34178E-01   -0.33917E-02 21991   0.473E-01    0.489E-01
RMM:   5    -0.427351062511E+02   -0.88215E-03   -0.32810E-03 19426   0.142E-01    0.492E-01
RMM:   6    -0.427350690814E+02    0.37170E-04   -0.18666E-03 18242   0.119E-01    0.555E-01
RMM:   7    -0.427340863399E+02    0.98274E-03   -0.15814E-03 18522   0.116E-01    0.288E-01
RMM:   8    -0.427338104584E+02    0.27588E-03   -0.13669E-03 18787   0.106E-01    0.117E-01
RMM:   9    -0.427338095514E+02    0.90703E-06   -0.13275E-04 14568   0.395E-02
   7 F= -.42715413E+02 E0= -.42717206E+02  d E =-.594254E-01  mag=    -0.0001
       N       E                     dE             d eps       ncg     rms          rms(c)
DAV:   1    -0.415895172660E+02    0.11443E+01   -0.23019E+02 24480   0.676E+01    0.255E+00
RMM:   2    -0.431020921925E+02   -0.15126E+01   -0.14941E+01 26181   0.836E+00    0.260E+00
RMM:   3    -0.429455631748E+02    0.15653E+00   -0.84799E-01 23291   0.220E+00    0.516E+00
RMM:   4    -0.427796469540E+02    0.16592E+00   -0.14671E-01 23426   0.103E+00    0.887E-01
RMM:   5    -0.427825625719E+02   -0.29156E-02   -0.18723E-02 23695   0.333E-01    0.943E-01
RMM:   6    -0.427807519658E+02    0.18106E-02   -0.68064E-03 20492   0.232E-01    0.106E+00
RMM:   7    -0.427778852308E+02    0.28667E-02   -0.55919E-03 19126   0.200E-01    0.729E-01
RMM:   8    -0.427761316372E+02    0.17536E-02   -0.50477E-03 20282   0.209E-01    0.194E-01
RMM:   9    -0.427764055049E+02   -0.27387E-03   -0.90006E-04 17891   0.947E-02    0.321E-01
RMM:  10    -0.427759899684E+02    0.41554E-03   -0.34685E-04 15537   0.522E-02    0.145E-01
RMM:  11    -0.427758653301E+02    0.12464E-03   -0.15055E-04 13951   0.395E-02    0.598E-02
RMM:  12    -0.427758631342E+02    0.21958E-05   -0.11138E-04 13096   0.332E-02
   8 F= -.42758881E+02 E0= -.42757609E+02  d E =-.102894E+00  mag=    -0.0000
       N       E                     dE             d eps       ncg     rms          rms(c)
DAV:   1    -0.427408931266E+02    0.34972E-01   -0.69765E+00 25272   0.119E+01    0.444E-01
RMM:   2    -0.427874120307E+02   -0.46519E-01   -0.44159E-01 25220   0.147E+00    0.771E-01
RMM:   3    -0.427801623646E+02    0.72497E-02   -0.23443E-02 20692   0.377E-01    0.751E-01
RMM:   4    -0.427772673023E+02    0.28951E-02   -0.36704E-03 18892   0.149E-01    0.178E-01
RMM:   5    -0.427772972823E+02   -0.29980E-04   -0.23429E-04 15697   0.486E-02    0.173E-01
RMM:   6    -0.427774069971E+02   -0.10971E-03   -0.44062E-04 16020   0.592E-02    0.249E-01
RMM:   7    -0.427770937677E+02    0.31323E-03   -0.33280E-04 16464   0.552E-02    0.488E-02
RMM:   8    -0.427770977787E+02   -0.40110E-05   -0.80675E-05 13192   0.270E-02
   9 F= -.42760386E+02 E0= -.42759592E+02  d E =-.104399E+00  mag=    -0.0000
       N       E                     dE             d eps       ncg     rms          rms(c)
DAV:   1    -0.425519525095E+02    0.22514E+00   -0.46746E+01 24072   0.304E+01    0.106E+00
RMM:   2    -0.428225766527E+02   -0.27062E+00   -0.27117E+00 26355   0.364E+00    0.795E-01
RMM:   3    -0.427979104435E+02    0.24666E-01   -0.15055E-01 22411   0.937E-01    0.221E+00
RMM:   4    -0.427727120420E+02    0.25198E-01   -0.30731E-02 21111   0.455E-01    0.439E-01
RMM:   5    -0.427735147122E+02   -0.80267E-03   -0.30460E-03 18913   0.139E-01    0.540E-01
RMM:   6    -0.427725462061E+02    0.96851E-03   -0.11067E-03 18123   0.963E-02    0.303E-01
RMM:   7    -0.427724582951E+02    0.87911E-04   -0.84482E-04 18558   0.851E-02    0.262E-01
RMM:   8    -0.427729113653E+02   -0.45307E-03   -0.13289E-03 18749   0.101E-01    0.326E-01
RMM:   9    -0.427723018281E+02    0.60954E-03   -0.57859E-04 18243   0.716E-02    0.918E-02
RMM:  10    -0.427722754194E+02    0.26409E-04   -0.24856E-05 12169   0.183E-02
  10 F= -.42756002E+02 E0= -.42754661E+02  d E =0.438447E-02  mag=    -0.0000
       N       E                     dE             d eps       ncg     rms          rms(c)
DAV:   1    -0.427199857709E+02    0.52316E-01   -0.13981E+01 24048   0.167E+01    0.545E-01
RMM:   2    -0.428009050642E+02   -0.80919E-01   -0.80043E-01 26092   0.199E+00    0.626E-01
RMM:   3    -0.427928274089E+02    0.80777E-02   -0.42400E-02 21291   0.497E-01    0.120E+00
RMM:   4    -0.427848848548E+02    0.79426E-02   -0.70494E-03 19534   0.225E-01    0.260E-01
RMM:   5    -0.427853524500E+02   -0.46760E-03   -0.89652E-04 17093   0.810E-02    0.290E-01
RMM:   6    -0.427851477856E+02    0.20466E-03   -0.35738E-04 16018   0.582E-02    0.174E-01
RMM:   7    -0.427849986192E+02    0.14917E-03   -0.35108E-04 17157   0.559E-02    0.523E-02
RMM:   8    -0.427850148360E+02   -0.16217E-04   -0.15837E-04 14002   0.357E-02
  11 F= -.42768666E+02 E0= -.42767588E+02  d E =-.827993E-02  mag=    -0.0000
       N       E                     dE             d eps       ncg     rms          rms(c)
DAV:   1    -0.422221903361E+02    0.56281E+00   -0.33352E+01 26160   0.466E+01    0.174E+00
RMM:   2    -0.429151534908E+02   -0.69296E+00   -0.69299E+00 26706   0.545E+00    0.105E+00
RMM:   3    -0.428855966414E+02    0.29557E-01   -0.38707E-01 23229   0.140E+00    0.399E+00
RMM:   4    -0.428003909870E+02    0.85206E-01   -0.83406E-02 23203   0.710E-01    0.686E-01
RMM:   5    -0.428039523430E+02   -0.35614E-02   -0.57195E-03 19822   0.164E-01    0.580E-01
RMM:   6    -0.428037212971E+02    0.23105E-03   -0.57397E-04 16742   0.653E-02    0.535E-01
RMM:   7    -0.428036364071E+02    0.84890E-04   -0.39917E-04 16559   0.635E-02    0.394E-01
RMM:   8    -0.428039044782E+02   -0.26807E-03   -0.12633E-03 18840   0.107E-01    0.852E-02
RMM:   9    -0.428040208450E+02   -0.11637E-03   -0.40931E-04 16471   0.661E-02    0.101E-01
RMM:  10    -0.428039911270E+02    0.29718E-04   -0.29544E-05 13022   0.214E-02
  12 F= -.42787896E+02 E0= -.42786653E+02  d E =-.192295E-01  mag=    -0.0000
       N       E                     dE             d eps       ncg     rms          rms(c)
DAV:   1    -0.375863180790E+02    0.52177E+01   -0.30714E+02 26448   0.137E+02    0.655E+00
RMM:   2    -0.442016494859E+02   -0.66153E+01   -0.64126E+01 27916   0.183E+01    0.743E+00
RMM:   3    -0.437344985969E+02    0.46715E+00   -0.43642E+00 23178   0.502E+00    0.123E+01
RMM:   4    -0.428514495327E+02    0.88305E+00   -0.89018E-01 23403   0.246E+00    0.272E+00
RMM:   5    -0.428580796753E+02   -0.66301E-02   -0.97365E-02 24689   0.700E-01    0.191E+00
RMM:   6    -0.428536981284E+02    0.43815E-02   -0.10558E-02 19931   0.268E-01    0.168E+00
RMM:   7    -0.428538512212E+02   -0.15309E-03   -0.27473E-03 18860   0.159E-01    0.128E+00
RMM:   8    -0.428540415384E+02   -0.19032E-03   -0.50760E-03 22203   0.228E-01    0.593E-01
RMM:   9    -0.428560174893E+02   -0.19760E-02   -0.54503E-03 20439   0.223E-01    0.614E-01
RMM:  10    -0.428546018736E+02    0.14156E-02   -0.15759E-03 18119   0.113E-01    0.265E-01
RMM:  11    -0.428542875215E+02    0.31435E-03   -0.23546E-04 16226   0.461E-02    0.152E-01
RMM:  12    -0.428543517366E+02   -0.64215E-04   -0.38199E-04 16568   0.578E-02
  13 F= -.42839347E+02 E0= -.42837744E+02  d E =-.706802E-01  mag=     0.0000
       N       E                     dE             d eps       ncg     rms          rms(c)
DAV:   1    -0.266124561124E+02    0.16242E+02   -0.13609E+03 28416   0.260E+02    0.921E+00
RMM:   2    -0.559865630881E+02   -0.29374E+02   -0.26476E+02 25394   0.422E+01    0.258E+01
RMM:   3    -0.432805091060E+02    0.12706E+02   -0.11880E+01 23696   0.104E+01    0.648E+00
RMM:   4    -0.431296803657E+02    0.15083E+00   -0.15100E+00 23542   0.324E+00    0.515E+00
RMM:   5    -0.429864319122E+02    0.14325E+00   -0.28524E-01 23515   0.149E+00    0.320E+00
RMM:   6    -0.429470875210E+02    0.39344E-01   -0.47647E-02 23450   0.621E-01    0.196E+00
RMM:   7    -0.429542277623E+02   -0.71402E-02   -0.19994E-02 23163   0.366E-01    0.246E+00
RMM:   8    -0.429370220521E+02    0.17206E-01   -0.30779E-02 22341   0.473E-01    0.161E+00
RMM:   9    -0.429278151394E+02    0.92069E-02   -0.16024E-02 22024   0.344E-01    0.761E-01
RMM:  10    -0.429275027657E+02    0.31237E-03   -0.61752E-03 20231   0.188E-01    0.520E-01
RMM:  11    -0.429273012890E+02    0.20148E-03   -0.15579E-03 18401   0.124E-01    0.356E-01
RMM:  12    -0.429268063952E+02    0.49489E-03   -0.81490E-04 16825   0.799E-02    0.120E-01
RMM:  13    -0.429267826795E+02    0.23716E-04   -0.84702E-05 13799   0.378E-02
  14 F= -.42914096E+02 E0= -.42913278E+02  d E =-.145429E+00  mag=    -0.0000
       N       E                     dE             d eps       ncg     rms          rms(c)
DAV:   1     0.239787264661E+02    0.66906E+02   -0.62458E+03 27216   0.438E+02    0.440E+01
RMM:   2    -0.245719615076E+03   -0.26970E+03   -0.18214E+03 31224   0.127E+02    0.197E+02
RMM:   3    -0.149025771140E+03    0.96694E+02   -0.79678E+01 23664   0.318E+01    0.101E+02
RMM:   4    -0.577650538668E+02    0.91261E+02   -0.60974E+01 22882   0.278E+01    0.347E+01
RMM:   5    -0.498233535137E+02    0.79417E+01   -0.87610E+00 23698   0.950E+00    0.214E+01
RMM:   6    -0.443777780801E+02    0.54456E+01   -0.21641E+00 22911   0.426E+00    0.117E+01
RMM:   7    -0.437714199088E+02    0.60636E+00   -0.22455E-01 23733   0.105E+00    0.970E+00
RMM:   8    -0.433133515478E+02    0.45807E+00   -0.13409E-01 23171   0.104E+00    0.715E+00
RMM:   9    -0.430952663790E+02    0.21809E+00   -0.10495E-01 23089   0.813E-01    0.542E+00
RMM:  10    -0.429298019666E+02    0.16546E+00   -0.91686E-02 23210   0.816E-01    0.270E+00
RMM:  11    -0.429764757479E+02   -0.46674E-01   -0.17230E-02 22188   0.347E-01    0.377E+00
RMM:  12    -0.429221216497E+02    0.54354E-01   -0.52587E-02 23085   0.641E-01    0.208E+00
RMM:  13    -0.429271966147E+02   -0.50750E-02   -0.61895E-02 22768   0.601E-01    0.253E+00
RMM:  14    -0.428985084327E+02    0.28688E-01   -0.10155E-02 20715   0.264E-01    0.868E-01
RMM:  15    -0.429012467596E+02   -0.27383E-02   -0.40164E-03 18550   0.161E-01    0.716E-01
RMM:  16    -0.429016970970E+02   -0.45034E-03   -0.19561E-03 17828   0.122E-01    0.606E-01
RMM:  17    -0.429001381750E+02    0.15589E-02   -0.37817E-04 16158   0.556E-02    0.355E-01
RMM:  18    -0.429001967753E+02   -0.58600E-04   -0.27024E-05 13090   0.173E-02
  15 F= -.42891755E+02 E0= -.42892374E+02  d E =-.123089E+00  mag=    -0.0000
       N       E                     dE             d eps       ncg     rms          rms(c)
DAV:   1    -0.170129868059E+02    0.25887E+02   -0.23451E+03 29760   0.320E+02    0.126E+01
RMM:   2    -0.721326884874E+02   -0.55120E+02   -0.47433E+02 26295   0.598E+01    0.381E+01
RMM:   3    -0.450545260841E+02    0.27078E+02   -0.20398E+01 23684   0.147E+01    0.155E+01
RMM:   4    -0.433722708122E+02    0.16823E+01   -0.38734E+00 23380   0.548E+00    0.552E+00
RMM:   5    -0.431363574722E+02    0.23591E+00   -0.45656E-01 23556   0.191E+00    0.548E+00
RMM:   6    -0.430262885200E+02    0.11007E+00   -0.14444E-01 23413   0.102E+00    0.322E+00
RMM:   7    -0.430466820838E+02   -0.20394E-01   -0.45415E-02 23373   0.609E-01    0.398E+00
RMM:   8    -0.429928196165E+02    0.53862E-01   -0.68393E-02 22846   0.697E-01    0.282E+00
RMM:   9    -0.429547765248E+02    0.38043E-01   -0.50966E-02 22958   0.595E-01    0.121E+00
RMM:  10    -0.429514817307E+02    0.32948E-02   -0.11398E-02 23314   0.301E-01    0.959E-01
RMM:  11    -0.429532938276E+02   -0.18121E-02   -0.60608E-03 18996   0.205E-01    0.103E+00
RMM:  12    -0.429488410966E+02    0.44527E-02   -0.35431E-03 18711   0.172E-01    0.352E-01
RMM:  13    -0.429483588701E+02    0.48223E-03   -0.72603E-04 17181   0.870E-02    0.641E-02
RMM:  14    -0.429483936634E+02   -0.34793E-04   -0.44461E-05 13554   0.256E-02
  16 F= -.42937701E+02 E0= -.42937907E+02  d E =-.169035E+00  mag=    -0.0000
       N       E                     dE             d eps       ncg     rms          rms(c)
DAV:   1    -0.417681430440E+02    0.11802E+01   -0.54782E+01 28176   0.678E+01    0.269E+00
RMM:   2    -0.432406461974E+02   -0.14725E+01   -0.14603E+01 26427   0.789E+00    0.228E+00
RMM:   3    -0.431707029110E+02    0.69943E-01   -0.89297E-01 23232   0.215E+00    0.623E+00
RMM:   4    -0.429662084866E+02    0.20449E+00   -0.20222E-01 23425   0.114E+00    0.986E-01
RMM:   5    -0.429728356945E+02   -0.66272E-02   -0.15258E-02 21452   0.261E-01    0.795E-01
RMM:   6    -0.429726411038E+02    0.19459E-03   -0.90827E-04 17074   0.846E-02    0.733E-01
RMM:   7    -0.429724663497E+02    0.17475E-03   -0.70740E-04 16843   0.817E-02    0.589E-01
RMM:   8    -0.429729683022E+02   -0.50195E-03   -0.19519E-03 19076   0.138E-01    0.161E-01
RMM:   9    -0.429730771576E+02   -0.10886E-03   -0.72816E-04 17670   0.891E-02    0.123E-01
RMM:  10    -0.429730921074E+02   -0.14950E-04   -0.10439E-04 13963   0.349E-02
  17 F= -.42962838E+02 E0= -.42962898E+02  d E =-.251368E-01  mag=    -0.0000
       N       E                     dE             d eps       ncg     rms          rms(c)
DAV:   1    -0.418875887876E+02    0.10855E+01   -0.49738E+01 27840   0.645E+01    0.261E+00
RMM:   2    -0.432251838521E+02   -0.13376E+01   -0.13238E+01 26302   0.750E+00    0.234E+00
RMM:   3    -0.431676182421E+02    0.57566E-01   -0.82270E-01 23230   0.207E+00    0.602E+00
RMM:   4    -0.429762791613E+02    0.19134E+00   -0.18749E-01 23440   0.110E+00    0.925E-01
RMM:   5    -0.429827669233E+02   -0.64878E-02   -0.13454E-02 21283   0.250E-01    0.733E-01
RMM:   6    -0.429825608697E+02    0.20605E-03   -0.10651E-03 17085   0.898E-02    0.674E-01
RMM:   7    -0.429823371859E+02    0.22368E-03   -0.57398E-04 16753   0.769E-02    0.497E-01
RMM:   8    -0.429829988392E+02   -0.66165E-03   -0.14884E-03 18909   0.120E-01    0.140E-01
RMM:   9    -0.429831291870E+02   -0.13035E-03   -0.56270E-04 16947   0.791E-02    0.137E-01
RMM:  10    -0.429831043470E+02    0.24840E-04   -0.11261E-04 13798   0.354E-02
  18 F= -.42973199E+02 E0= -.42973030E+02  d E =-.354979E-01  mag=     0.0000
       N       E                     dE             d eps       ncg     rms          rms(c)
DAV:   1    -0.428495311484E+02    0.13360E+00   -0.61593E+00 28320   0.229E+01    0.901E-01
RMM:   2    -0.430064451172E+02   -0.15691E+00   -0.15633E+00 25892   0.255E+00    0.656E-01
RMM:   3    -0.430067183843E+02   -0.27327E-03   -0.93726E-02 22644   0.689E-01    0.214E+00
RMM:   4    -0.429822184209E+02    0.24500E-01   -0.22389E-02 20852   0.383E-01    0.297E-01
RMM:   5    -0.429835589446E+02   -0.13405E-02   -0.15992E-03 17456   0.957E-02    0.291E-01
RMM:   6    -0.429834210970E+02    0.13785E-03   -0.24283E-04 15006   0.450E-02    0.214E-01
RMM:   7    -0.429834489650E+02   -0.27868E-04   -0.64917E-05 13411   0.284E-02    0.146E-01
RMM:   8    -0.429835334087E+02   -0.84444E-04   -0.22729E-04 15307   0.460E-02
  19 F= -.42973622E+02 E0= -.42973480E+02  d E =-.359209E-01  mag=     0.0000
       N       E                     dE             d eps       ncg     rms          rms(c)
DAV:   1    -0.424845284317E+02    0.49892E+00   -0.24057E+01 27744   0.449E+01    0.172E+00
RMM:   2    -0.430962984372E+02   -0.61177E+00   -0.60066E+00 25890   0.506E+00    0.185E+00
RMM:   3    -0.430672833668E+02    0.29015E-01   -0.36815E-01 23138   0.137E+00    0.388E+00
RMM:   4    -0.429883600008E+02    0.78923E-01   -0.80691E-02 23052   0.705E-01    0.626E-01
RMM:   5    -0.429916440267E+02   -0.32840E-02   -0.52287E-03 19291   0.168E-01    0.582E-01
RMM:   6    -0.429910935486E+02    0.55048E-03   -0.79651E-04 16818   0.756E-02    0.452E-01
RMM:   7    -0.429911127543E+02   -0.19206E-04   -0.28498E-04 16018   0.554E-02    0.303E-01
RMM:   8    -0.429914954179E+02   -0.38266E-03   -0.75359E-04 17149   0.856E-02    0.101E-01
RMM:   9    -0.429916261558E+02   -0.13074E-03   -0.35381E-04 16217   0.594E-02    0.172E-01
RMM:  10    -0.429915083863E+02    0.11777E-03   -0.11961E-04 14337   0.353E-02    0.743E-02
RMM:  11    -0.429914750740E+02    0.33312E-04   -0.28976E-05 12582   0.193E-02
  20 F= -.42981852E+02 E0= -.42981283E+02  d E =-.823038E-02  mag=     0.0000
       N       E                     dE             d eps       ncg     rms          rms(c)
DAV:   1    -0.429909475788E+02    0.56081E-03   -0.24904E-02 29424   0.147E+00    0.588E-02
RMM:   2    -0.429915312118E+02   -0.58363E-03   -0.58023E-03 18039   0.156E-01    0.388E-02
RMM:   3    -0.429915349337E+02   -0.37219E-05   -0.36842E-04 14004   0.496E-02    0.130E-01
RMM:   4    -0.429914522169E+02    0.82717E-04   -0.91806E-05  9757   0.291E-02    0.159E-02
RMM:   5    -0.429914562356E+02   -0.40187E-05   -0.81463E-06  6544   0.993E-03    0.181E-02
RMM:   6    -0.429914559787E+02    0.25686E-06   -0.40245E-06  5510   0.742E-03    0.118E-02
RMM:   7    -0.429914565658E+02   -0.58703E-06   -0.51027E-07  3471   0.513E-03    0.736E-03
RMM:   8    -0.429914578792E+02   -0.13135E-05   -0.10552E-06  6096   0.553E-03
  21 F= -.42981829E+02 E0= -.42981276E+02  d E =-.820748E-02  mag=     0.0000
       N       E                     dE             d eps       ncg     rms          rms(c)
DAV:   1    -0.429388607271E+02    0.52596E-01   -0.33968E+00 27984   0.156E+01    0.556E-01
RMM:   2    -0.430065714626E+02   -0.67711E-01   -0.65379E-01 23888   0.170E+00    0.780E-01
RMM:   3    -0.430015951992E+02    0.49763E-02   -0.39112E-02 21788   0.438E-01    0.113E+00
RMM:   4    -0.429949062323E+02    0.66890E-02   -0.76163E-03 19215   0.212E-01    0.209E-01
RMM:   5    -0.429952111516E+02   -0.30492E-03   -0.38716E-04 16384   0.546E-02    0.189E-01
RMM:   6    -0.429951697330E+02    0.41419E-04   -0.11190E-04 13009   0.331E-02    0.148E-01
RMM:   7    -0.429951416017E+02    0.28131E-04   -0.64700E-05 13426   0.285E-02    0.758E-02
RMM:   8    -0.429951733111E+02   -0.31709E-04   -0.10976E-04 13703   0.324E-02
  22 F= -.42985554E+02 E0= -.42984893E+02  d E =-.372496E-02  mag=     0.0000
       N       E                     dE             d eps       ncg     rms          rms(c)
DAV:   1    -0.429574940632E+02    0.37648E-01   -0.23269E+00 28128   0.129E+01    0.485E-01
RMM:   2    -0.430038714593E+02   -0.46377E-01   -0.44732E-01 23775   0.141E+00    0.663E-01
RMM:   3    -0.430009845281E+02    0.28869E-02   -0.27324E-02 21275   0.376E-01    0.993E-01
RMM:   4    -0.429958173454E+02    0.51672E-02   -0.54931E-03 18890   0.184E-01    0.164E-01
RMM:   5    -0.429960559832E+02   -0.23864E-03   -0.31327E-04 16115   0.500E-02    0.165E-01
RMM:   6    -0.429960009488E+02    0.55034E-04   -0.95886E-05 12347   0.310E-02    0.112E-01
RMM:   7    -0.429959817812E+02    0.19168E-04   -0.38443E-05 12822   0.225E-02    0.570E-02
RMM:   8    -0.429960133254E+02   -0.31544E-04   -0.63030E-05 12972   0.245E-02
  23 F= -.42986425E+02 E0= -.42985630E+02  d E =-.459527E-02  mag=     0.0000
