 vasp.5.4.4.18Apr17-6-g9f103f2a35 (build Sep 22 2020 16:42:52) complex          
  
 executed on             LinuxIFC date 2020.09.22  17:07:35
 running on    6 total cores
 distrk:  each k-point on    6 cores,    1 groups
 distr:  one band on NCORES_PER_BAND=   1 cores,    6 groups


--------------------------------------------------------------------------------------------------------


 INCAR:
 POTCAR:    PAW_PBE C 08Apr2002                   
 POTCAR:    PAW_PBE O 08Apr2002                   

 ----------------------------------------------------------------------------- 
|                                                                             |
|           W    W    AA    RRRRR   N    N  II  N    N   GGGG   !!!           |
|           W    W   A  A   R    R  NN   N  II  NN   N  G    G  !!!           |
|           W    W  A    A  R    R  N N  N  II  N N  N  G       !!!           |
|           W WW W  AAAAAA  RRRRR   N  N N  II  N  N N  G  GGG   !            |
|           WW  WW  A    A  R   R   N   NN  II  N   NN  G    G                |
|           W    W  A    A  R    R  N    N  II  N    N   GGGG   !!!           |
|                                                                             |
|      For optimal performance we recommend to set                            |
|        NCORE= 4 - approx SQRT( number of cores)                             |
|      NCORE specifies how many cores store one orbital (NPAR=cpu/NCORE).     |
|      This setting can  greatly improve the performance of VASP for DFT.     |
|      The default,   NCORE=1            might be grossly inefficient         |
|      on modern multi-core architectures or massively parallel machines.     |
|      Do your own testing !!!!                                               |
|      Unfortunately you need to use the default for GW and RPA calculations. |
|      (for HF NCORE is supported but not extensively tested yet)             |
|                                                                             |
 ----------------------------------------------------------------------------- 

 POTCAR:    PAW_PBE C 08Apr2002                   
   VRHFIN =C: s2p2                                                              
   LEXCH  = PE                                                                  
   EATOM  =   147.1560 eV,   10.8157 Ry                                         
                                                                                
   TITEL  = PAW_PBE C 08Apr2002                                                 
   LULTRA =        F    use ultrasoft PP ?                                      
   IUNSCR =        1    unscreen: 0-lin 1-nonlin 2-no                           
   RPACOR =    1.200    partial core radius                                     
   POMASS =   12.011; ZVAL   =    4.000    mass and valenz                      
   RCORE  =    1.500    outmost cutoff radius                                   
   RWIGS  =    1.630; RWIGS  =    0.863    wigner-seitz radius (au A)           
   ENMAX  =  400.000; ENMIN  =  300.000 eV                                      
   ICORE  =        2    local potential                                         
   LCOR   =        T    correct aug charges                                     
   LPAW   =        T    paw PP                                                  
   EAUG   =  644.873                                                            
   DEXC   =    0.000                                                            
   RMAX   =    1.529    core radius for proj-oper                               
   RAUG   =    1.300    factor for augmentation sphere                          
   RDEP   =    1.501    radius for radial grids                                 
   RDEPT  =    1.300    core radius for aug-charge                              
                                                                                
   Atomic configuration                                                         
    4 entries                                                                   
     n  l   j            E        occ.                                          
     1  0  0.50      -273.3789   2.0000                                         
     2  0  0.50       -13.7508   2.0000                                         
     2  1  0.50        -5.2854   2.0000                                         
     3  2  1.50        -5.4423   0.0000                                         
   Description                                                                  
     l       E           TYP  RCUT    TYP  RCUT                                 
     0    -13.7508458     23  1.200                                             
     0     -8.2022199     23  1.200                                             
     1     -5.2854383     23  1.500                                             
     1     34.0145650     23  1.500                                             
     2     -5.4423304      7  1.500                                             
  local pseudopotential read in
  partial core-charges read in
  partial kinetic energy density read in
  atomic valenz-charges read in
  non local Contribution for L=           0  read in
    real space projection operators read in
  non local Contribution for L=           0  read in
    real space projection operators read in
  non local Contribution for L=           1  read in
    real space projection operators read in
  non local Contribution for L=           1  read in
    real space projection operators read in
    PAW grid and wavefunctions read in
 
   number of l-projection  operators is LMAX  =           4
   number of lm-projection operators is LMMAX =           8
 
 POTCAR:    PAW_PBE O 08Apr2002                   
   VRHFIN =O: s2p4                                                              
   LEXCH  = PE                                                                  
   EATOM  =   432.3788 eV,   31.7789 Ry                                         
                                                                                
   TITEL  = PAW_PBE O 08Apr2002                                                 
   LULTRA =        F    use ultrasoft PP ?                                      
   IUNSCR =        1    unscreen: 0-lin 1-nonlin 2-no                           
   RPACOR =    1.200    partial core radius                                     
   POMASS =   16.000; ZVAL   =    6.000    mass and valenz                      
   RCORE  =    1.520    outmost cutoff radius                                   
   RWIGS  =    1.550; RWIGS  =    0.820    wigner-seitz radius (au A)           
   ENMAX  =  400.000; ENMIN  =  300.000 eV                                      
   ICORE  =        2    local potential                                         
   LCOR   =        T    correct aug charges                                     
   LPAW   =        T    paw PP                                                  
   EAUG   =  605.392                                                            
   DEXC   =    0.000                                                            
   RMAX   =    1.553    core radius for proj-oper                               
   RAUG   =    1.300    factor for augmentation sphere                          
   RDEP   =    1.550    radius for radial grids                                 
   RDEPT  =    1.329    core radius for aug-charge                              
                                                                                
   Atomic configuration                                                         
    4 entries                                                                   
     n  l   j            E        occ.                                          
     1  0  0.50      -514.6923   2.0000                                         
     2  0  0.50       -23.9615   2.0000                                         
     2  1  0.50        -9.0305   4.0000                                         
     3  2  1.50        -9.5241   0.0000                                         
   Description                                                                  
     l       E           TYP  RCUT    TYP  RCUT                                 
     0    -23.9615318     23  1.200                                             
     0     -9.5240782     23  1.200                                             
     1     -9.0304911     23  1.520                                             
     1      8.1634956     23  1.520                                             
     2     -9.5240782      7  1.500                                             
  local pseudopotential read in
  partial core-charges read in
  partial kinetic energy density read in
  kinetic energy density of atom read in
  atomic valenz-charges read in
  non local Contribution for L=           0  read in
    real space projection operators read in
  non local Contribution for L=           0  read in
    real space projection operators read in
  non local Contribution for L=           1  read in
    real space projection operators read in
  non local Contribution for L=           1  read in
    real space projection operators read in
    PAW grid and wavefunctions read in
 
   number of l-projection  operators is LMAX  =           4
   number of lm-projection operators is LMMAX =           8
 
  PAW_PBE C 08Apr2002                   :
 energy of atom  1       EATOM= -147.1560
 kinetic energy error for atom=    0.0288 (will be added to EATOM!!)
  PAW_PBE O 08Apr2002                   :
 energy of atom  2       EATOM= -432.3788
 kinetic energy error for atom=    0.1156 (will be added to EATOM!!)
 
 
 POSCAR: CO molecule in a box                    
  positions in direct lattice
  velocities in cartesian coordinates
  No initial velocities read in
 exchange correlation table for  LEXCH =        8
   RHO(1)=    0.500       N(1)  =     2000
   RHO(2)=  100.500       N(2)  =     4000
 


--------------------------------------------------------------------------------------------------------


 ion  position               nearest neighbor table
   1  0.000  0.000  0.999-   2 1.14
   2  0.000  0.000  0.114-   1 1.14
 
  LATTYP: Found a simple cubic cell.
 ALAT       =    10.0000000000
  
  Lattice vectors:
  
 A1 = (  10.0000000000,   0.0000000000,   0.0000000000)
 A2 = (   0.0000000000,  10.0000000000,   0.0000000000)
 A3 = (   0.0000000000,   0.0000000000,  10.0000000000)


Analysis of symmetry for initial positions (statically):
=====================================================================
 Subroutine PRICEL returns:
 Original cell was already a primitive cell.
 

 Routine SETGRP: Setting up the symmetry group for a 
 simple cubic supercell.


 Subroutine GETGRP returns: Found  8 space group operations
 (whereof  8 operations were pure point group operations)
 out of a pool of 48 trial point group operations.


The static configuration has the point symmetry C_4v.


Analysis of symmetry for dynamics (positions and initial velocities):
=====================================================================
 Subroutine PRICEL returns:
 Original cell was already a primitive cell.
 

 Routine SETGRP: Setting up the symmetry group for a 
 simple cubic supercell.


 Subroutine GETGRP returns: Found  8 space group operations
 (whereof  8 operations were pure point group operations)
 out of a pool of 48 trial point group operations.


The dynamic configuration has the point symmetry C_4v.


 Subroutine INISYM returns: Found  8 space group operations
 (whereof  8 operations are pure point group operations),
 and found     1 'primitive' translations

 
 
 KPOINTS: KPOINTS                                 

Automatic generation of k-mesh.
Space group operators:
 irot       det(A)        alpha          n_x          n_y          n_z        tau_x        tau_y        tau_z
    1     1.000000     0.000000     1.000000     0.000000     0.000000     0.000000     0.000000     0.000000
    2     1.000000    90.000000     0.000000     0.000000    -1.000000     0.000000     0.000000     0.000000
    3     1.000000   180.000000     0.000000     0.000000     1.000000     0.000000     0.000000     0.000000
    4     1.000000    90.000000     0.000000     0.000000     1.000000     0.000000     0.000000     0.000000
    5    -1.000000   180.000000     1.000000     0.000000     0.000000     0.000000     0.000000     0.000000
    6    -1.000000   180.000000     0.707107     0.707107     0.000000     0.000000     0.000000     0.000000
    7    -1.000000   180.000000     0.000000     1.000000     0.000000     0.000000     0.000000     0.000000
    8    -1.000000   180.000000     0.707107    -0.707107     0.000000     0.000000     0.000000     0.000000
 
 Subroutine IBZKPT returns following result:
 ===========================================
 
 Found      6 irreducible k-points:
 
 Following reciprocal coordinates:
            Coordinates               Weight
  0.000000  0.000000  0.000000      1.000000
  0.500000  0.000000  0.000000      2.000000
  0.500000  0.500000  0.000000      1.000000
  0.000000  0.000000  0.500000      1.000000
  0.500000  0.000000  0.500000      2.000000
  0.500000  0.500000  0.500000      1.000000
 
 Following cartesian coordinates:
            Coordinates               Weight
  0.000000  0.000000  0.000000      1.000000
  0.050000  0.000000  0.000000      2.000000
  0.050000  0.050000  0.000000      1.000000
  0.000000  0.000000  0.050000      1.000000
  0.050000  0.000000  0.050000      2.000000
  0.050000  0.050000  0.050000      1.000000
 


--------------------------------------------------------------------------------------------------------




 Dimension of arrays:
   k-points           NKPTS =      6   k-points in BZ     NKDIM =      6   number of bands    NBANDS=     12
   number of dos      NEDOS =    301   number of ions     NIONS =      2
   non local maximal  LDIM  =      4   non local SUM 2l+1 LMDIM =      8
   total plane-waves  NPLWV = 125000
   max r-space proj   IRMAX =      1   max aug-charges    IRDMAX=   1821
   dimension x,y,z NGX =    50 NGY =   50 NGZ =   50
   dimension x,y,z NGXF=   100 NGYF=  100 NGZF=  100
   support grid    NGXF=   100 NGYF=  100 NGZF=  100
   ions per type =               1   1
   NGX,Y,Z   is equivalent  to a cutoff of   8.31,  8.31,  8.31 a.u.
   NGXF,Y,Z  is equivalent  to a cutoff of  16.62, 16.62, 16.62 a.u.

 SYSTEM =  unknown system                          
 POSCAR =  CO molecule in a box                    

 Startparameter for this run:
   NWRITE =      2    write-flag & timer
   PREC   = normal    normal or accurate (medium, high low for compatibility)
   ISTART =      0    job   : 0-new  1-cont  2-samecut
   ICHARG =      2    charge: 1-file 2-atom 10-const
   ISPIN  =      1    spin polarized calculation?
   LNONCOLLINEAR =      F non collinear calculations
   LSORBIT =      F    spin-orbit coupling
   INIWAV =      1    electr: 0-lowe 1-rand  2-diag
   LASPH  =      F    aspherical Exc in radial PAW
   METAGGA=      F    non-selfconsistent MetaGGA calc.

 Electronic Relaxation 1
   ENCUT  =  400.0 eV  29.40 Ry    5.42 a.u.  16.31 16.31 16.31*2*pi/ulx,y,z
   ENINI  =  400.0     initial cutoff
   ENAUG  =  644.9 eV  augmentation charge cutoff
   NELM   =     60;   NELMIN=  2; NELMDL=  0     # of ELM steps 
   EDIFF  = 0.1E-03   stopping-criterion for ELM
   LREAL  =      F    real-space projection
   NLSPLINE    = F    spline interpolate recip. space projectors
   LCOMPAT=      F    compatible to vasp.4.4
   GGA_COMPAT  = T    GGA compatible to vasp.4.4-vasp.4.6
   LMAXPAW     = -100 max onsite density
   LMAXMIX     =    2 max onsite mixed and CHGCAR
   VOSKOWN=      0    Vosko Wilk Nusair interpolation
   ROPT   =    0.00000   0.00000
 Ionic relaxation
   EDIFFG = 0.1E-02   stopping-criterion for IOM
   NSW    =      0    number of steps for IOM
   NBLOCK =      1;   KBLOCK =      1    inner block; outer block 
   IBRION =     -1    ionic relax: 0-MD 1-quasi-New 2-CG
   NFREE  =      0    steps in history (QN), initial steepest desc. (CG)
   ISIF   =      2    stress and relaxation
   IWAVPR =     10    prediction:  0-non 1-charg 2-wave 3-comb
   ISYM   =      2    0-nonsym 1-usesym 2-fastsym
   LCORR  =      T    Harris-Foulkes like correction to forces

   POTIM  = 0.5000    time-step for ionic-motion
   TEIN   =    0.0    initial temperature
   TEBEG  =    0.0;   TEEND  =   0.0 temperature during run
   SMASS  =  -3.00    Nose mass-parameter (am)
   estimated Nose-frequenzy (Omega)   =  0.10E-29 period in steps =****** mass=  -0.229E-26a.u.
   SCALEE = 1.0000    scale energy and forces
   NPACO  =    256;   APACO  = 16.0  distance and # of slots for P.C.
   PSTRESS=    0.0 pullay stress

  Mass of Ions in am
   POMASS =  12.01 16.00
  Ionic Valenz
   ZVAL   =   4.00  6.00
  Atomic Wigner-Seitz radii
   RWIGS  =  -1.00 -1.00
  virtual crystal weights 
   VCA    =   1.00  1.00
   NELECT =      10.0000    total number of electrons
   NUPDOWN=      -1.0000    fix difference up-down

 DOS related values:
   EMIN   =  10.00;   EMAX   =-10.00  energy-range for DOS
   EFERMI =   0.00
   ISMEAR =     0;   SIGMA  =   0.05  broadening in eV -4-tet -1-fermi 0-gaus

 Electronic relaxation 2 (details)
   IALGO  =     38    algorithm
   LDIAG  =      T    sub-space diagonalisation (order eigenvalues)
   LSUBROT=      F    optimize rotation matrix (better conditioning)
   TURBO    =      0    0=normal 1=particle mesh
   IRESTART =      0    0=no restart 2=restart with 2 vectors
   NREBOOT  =      0    no. of reboots
   NMIN     =      0    reboot dimension
   EREF     =   0.00    reference energy to select bands
   IMIX   =      4    mixing-type and parameters
     AMIX     =   0.40;   BMIX     =  1.00
     AMIX_MAG =   1.60;   BMIX_MAG =  1.00
     AMIN     =   0.10
     WC   =   100.;   INIMIX=   1;  MIXPRE=   1;  MAXMIX= -45

 Intra band minimization:
   WEIMIN = 0.0000     energy-eigenvalue tresh-hold
   EBREAK =  0.21E-05  absolut break condition
   DEPER  =   0.30     relativ break condition  

   TIME   =   0.40     timestep for ELM

  volume/ion in A,a.u.               =     500.00      3374.17
  Fermi-wavevector in a.u.,A,eV,Ry     =   0.352702  0.666511  1.692549  0.124399
  Thomas-Fermi vector in A             =   1.266362
 
 Write flags
   LWAVE        =      T    write WAVECAR
   LDOWNSAMPLE  =      F    k-point downsampling of WAVECAR
   LCHARG       =      T    write CHGCAR
   LVTOT        =      F    write LOCPOT, total local potential
   LVHAR        =      F    write LOCPOT, Hartree potential only
   LELF         =      F    write electronic localiz. function (ELF)
   LORBIT       =      0    0 simple, 1 ext, 2 COOP (PROOUT), +10 PAW based schemes


 Dipole corrections
   LMONO  =      F    monopole corrections only (constant potential shift)
   LDIPOL =      F    correct potential (dipole corrections)
   IDIPOL =      0    1-x, 2-y, 3-z, 4-all directions 
   EPSILON=  1.0000000 bulk dielectric constant

 Exchange correlation treatment:
   GGA     =    --    GGA type
   LEXCH   =     8    internal setting for exchange type
   VOSKOWN=      0    Vosko Wilk Nusair interpolation
   LHFCALC =     F    Hartree Fock is set to
   LHFONE  =     F    Hartree Fock one center treatment
   AEXX    =    0.0000 exact exchange contribution

 Linear response parameters
   LEPSILON=     F    determine dielectric tensor
   LRPA    =     F    only Hartree local field effects (RPA)
   LNABLA  =     F    use nabla operator in PAW spheres
   LVEL    =     F    velocity operator in full k-point grid
   LINTERFAST=   F  fast interpolation
   KINTER  =     0    interpolate to denser k-point grid
   CSHIFT  =0.1000    complex shift for real part using Kramers Kronig
   OMEGAMAX=  -1.0    maximum frequency
   DEG_THRESHOLD= 0.2000000E-02 threshold for treating states as degnerate
   RTIME   =   -0.100 relaxation time in fs
  (WPLASMAI=    0.000 imaginary part of plasma frequency in eV, 0.658/RTIME)
   DFIELD  = 0.0000000 0.0000000 0.0000000 field for delta impulse in time
 
 Orbital magnetization related:
   ORBITALMAG=     F  switch on orbital magnetization
   LCHIMAG   =     F  perturbation theory with respect to B field
   DQ        =  0.001000  dq finite difference perturbation B field
   LLRAUG    =     F  two centre corrections for induced B field



--------------------------------------------------------------------------------------------------------


 Static calculation
 charge density and potential will be updated during run
 non-spin polarized calculation
 Variant of blocked Davidson
 Davidson routine will perform the subspace rotation
 perform sub-space diagonalisation
    after iterative eigenvector-optimisation
 modified Broyden-mixing scheme, WC =      100.0
 initial mixing is a Kerker type mixing with AMIX =  0.4000 and BMIX =      1.0000
 Hartree-type preconditioning will be used
 using additional bands            7
 reciprocal scheme for non local part
 use partial core corrections
 calculate Harris-corrections to forces 
   (improved forces if not selfconsistent)
 use gradient corrections 
 use of overlap-Matrix (Vanderbilt PP)
 Gauss-broadening in eV      SIGMA  =   0.05


--------------------------------------------------------------------------------------------------------


  energy-cutoff  :      400.00
  volume of cell :     1000.00
      direct lattice vectors                 reciprocal lattice vectors
    10.000000000  0.000000000  0.000000000     0.100000000  0.000000000  0.000000000
     0.000000000 10.000000000  0.000000000     0.000000000  0.100000000  0.000000000
     0.000000000  0.000000000 10.000000000     0.000000000  0.000000000  0.100000000

  length of vectors
    10.000000000 10.000000000 10.000000000     0.100000000  0.100000000  0.100000000


 
 k-points in units of 2pi/SCALE and weight: KPOINTS                                 
   0.00000000  0.00000000  0.00000000       0.125
   0.05000000  0.00000000  0.00000000       0.250
   0.05000000  0.05000000  0.00000000       0.125
   0.00000000  0.00000000  0.05000000       0.125
   0.05000000  0.00000000  0.05000000       0.250
   0.05000000  0.05000000  0.05000000       0.125
 
 k-points in reciprocal lattice and weights: KPOINTS                                 
   0.00000000  0.00000000  0.00000000       0.125
   0.50000000  0.00000000  0.00000000       0.250
   0.50000000  0.50000000  0.00000000       0.125
   0.00000000  0.00000000  0.50000000       0.125
   0.50000000  0.00000000  0.50000000       0.250
   0.50000000  0.50000000  0.50000000       0.125
 
 position of ions in fractional coordinates (direct lattice) 
   0.00000000  0.00000000  0.99917918
   0.00000000  0.00000000  0.11365082
 
 position of ions in cartesian coordinates  (Angst):
   0.00000000  0.00000000  9.99179182
   0.00000000  0.00000000  1.13650818
 


--------------------------------------------------------------------------------------------------------


 k-point  1 :   0.0000 0.0000 0.0000  plane waves:   18037
 k-point  2 :   0.5000 0.0000 0.0000  plane waves:   18184
 k-point  3 :   0.5000 0.5000 0.0000  plane waves:   18176
 k-point  4 :   0.0000 0.0000 0.5000  plane waves:   18184
 k-point  5 :   0.5000 0.0000 0.5000  plane waves:   18176
 k-point  6 :   0.5000 0.5000 0.5000  plane waves:   18048

 maximum and minimum number of plane-waves per node :     18184    18037

 maximum number of plane-waves:     18184
 maximum index in each direction: 
   IXMAX=   16   IYMAX=   16   IZMAX=   16
   IXMIN=  -16   IYMIN=  -16   IZMIN=  -16


 serial   3D FFT for wavefunctions
 parallel 3D FFT for charge:
    minimum data exchange during FFTs selected (reduces bandwidth)


 total amount of memory used by VASP MPI-rank0    69055. kBytes
=======================================================================

   base      :      30000. kBytes
   nonl-proj :      14548. kBytes
   fftplans  :       6310. kBytes
   grid      :      14696. kBytes
   one-center:          6. kBytes
   wavefun   :       3495. kBytes
 
     INWAV:  cpu time    0.0000: real time    0.0001
 Broyden mixing: mesh for mixing (old mesh)
   NGX = 33   NGY = 33   NGZ = 33
  (NGX  =100   NGY  =100   NGZ  =100)
  gives a total of  35937 points

 initial charge density was supplied:
 charge density of overlapping atoms calculated
 number of electron      10.0000000 magnetization 
 keeping initial charge density in first step


--------------------------------------------------------------------------------------------------------


 Maximum index for augmentation-charges          324 (set IRDMAX)


--------------------------------------------------------------------------------------------------------


 First call to EWALD:  gamma=   0.177
 Maximum number of real-space cells 3x 3x 3
 Maximum number of reciprocal cells 3x 3x 3

    FEWALD:  cpu time    0.0008: real time    0.0008


--------------------------------------- Iteration      1(   1)  ---------------------------------------


    POTLOK:  cpu time    0.1684: real time    0.1692
    SETDIJ:  cpu time    0.0022: real time    0.0023
     EDDAV:  cpu time    0.8496: real time    0.8539
       DOS:  cpu time    0.0001: real time    0.0001
    --------------------------------------------
      LOOP:  cpu time    1.0204: real time    1.0255

 eigenvalue-minimisations  :   192
 total energy-change (2. order) : 0.5433415E+02  (-0.2105622E+03)
 number of electron      10.0000000 magnetization 
 augmentation part       10.0000000 magnetization 

 Free energy of the ion-electron system (eV)
  ---------------------------------------------------
  alpha Z        PSCENC =         0.43695755
  Ewald energy   TEWEN  =        98.58894300
  -Hartree energ DENC   =      -560.30936031
  -exchange      EXHF   =         0.00000000
  -V(xc)+E(xc)   XCENC  =        39.19352022
  PAW double counting   =       455.07152327     -457.43959975
  entropy T*S    EENTRO =        -0.01200041
  eigenvalues    EBANDS =      -100.58625557
  atomic energy  EATOM  =       579.39041991
  Solvation  Ediel_sol  =         0.00000000
  ---------------------------------------------------
  free energy    TOTEN  =        54.33414792 eV

  energy without entropy =       54.34614833  energy(sigma->0) =       54.34014812


--------------------------------------------------------------------------------------------------------




--------------------------------------- Iteration      1(   2)  ---------------------------------------


     EDDAV:  cpu time    0.9685: real time    0.9694
       DOS:  cpu time    0.0001: real time    0.0001
    --------------------------------------------
      LOOP:  cpu time    0.9687: real time    0.9696

 eigenvalue-minimisations  :   228
 total energy-change (2. order) :-0.6545541E+02  (-0.6339748E+02)
 number of electron      10.0000000 magnetization 
 augmentation part       10.0000000 magnetization 

 Free energy of the ion-electron system (eV)
  ---------------------------------------------------
  alpha Z        PSCENC =         0.43695755
  Ewald energy   TEWEN  =        98.58894300
  -Hartree energ DENC   =      -560.30936031
  -exchange      EXHF   =         0.00000000
  -V(xc)+E(xc)   XCENC  =        39.19352022
  PAW double counting   =       455.07152327     -457.43959975
  entropy T*S    EENTRO =        -0.00000000
  eigenvalues    EBANDS =      -166.05366781
  atomic energy  EATOM  =       579.39041991
  Solvation  Ediel_sol  =         0.00000000
  ---------------------------------------------------
  free energy    TOTEN  =       -11.12126392 eV

  energy without entropy =      -11.12126392  energy(sigma->0) =      -11.12126392


--------------------------------------------------------------------------------------------------------




--------------------------------------- Iteration      1(   3)  ---------------------------------------


     EDDAV:  cpu time    1.0481: real time    1.0504
       DOS:  cpu time    0.0001: real time    0.0002
    --------------------------------------------
      LOOP:  cpu time    1.0482: real time    1.0506

 eigenvalue-minimisations  :   252
 total energy-change (2. order) :-0.4457702E+01  (-0.4457702E+01)
 number of electron      10.0000000 magnetization 
 augmentation part       10.0000000 magnetization 

 Free energy of the ion-electron system (eV)
  ---------------------------------------------------
  alpha Z        PSCENC =         0.43695755
  Ewald energy   TEWEN  =        98.58894300
  -Hartree energ DENC   =      -560.30936031
  -exchange      EXHF   =         0.00000000
  -V(xc)+E(xc)   XCENC  =        39.19352022
  PAW double counting   =       455.07152327     -457.43959975
  entropy T*S    EENTRO =        -0.00000000
  eigenvalues    EBANDS =      -170.51137002
  atomic energy  EATOM  =       579.39041991
  Solvation  Ediel_sol  =         0.00000000
  ---------------------------------------------------
  free energy    TOTEN  =       -15.57896612 eV

  energy without entropy =      -15.57896612  energy(sigma->0) =      -15.57896612


--------------------------------------------------------------------------------------------------------




--------------------------------------- Iteration      1(   4)  ---------------------------------------


     EDDAV:  cpu time    0.7240: real time    0.7286
       DOS:  cpu time    0.0001: real time    0.0001
    --------------------------------------------
      LOOP:  cpu time    0.7241: real time    0.7287

 eigenvalue-minimisations  :   156
 total energy-change (2. order) :-0.1195845E-01  (-0.1195845E-01)
 number of electron      10.0000000 magnetization 
 augmentation part       10.0000000 magnetization 

 Free energy of the ion-electron system (eV)
  ---------------------------------------------------
  alpha Z        PSCENC =         0.43695755
  Ewald energy   TEWEN  =        98.58894300
  -Hartree energ DENC   =      -560.30936031
  -exchange      EXHF   =         0.00000000
  -V(xc)+E(xc)   XCENC  =        39.19352022
  PAW double counting   =       455.07152327     -457.43959975
  entropy T*S    EENTRO =        -0.00000000
  eigenvalues    EBANDS =      -170.52332847
  atomic energy  EATOM  =       579.39041991
  Solvation  Ediel_sol  =         0.00000000
  ---------------------------------------------------
  free energy    TOTEN  =       -15.59092457 eV

  energy without entropy =      -15.59092457  energy(sigma->0) =      -15.59092457


--------------------------------------------------------------------------------------------------------




--------------------------------------- Iteration      1(   5)  ---------------------------------------


     EDDAV:  cpu time    0.8338: real time    0.8473
       DOS:  cpu time    0.0001: real time    0.0001
    CHARGE:  cpu time    0.0438: real time    0.0441
    MIXING:  cpu time    0.0046: real time    0.0051
    --------------------------------------------
      LOOP:  cpu time    0.8823: real time    0.8966

 eigenvalue-minimisations  :   192
 total energy-change (2. order) :-0.7889420E-04  (-0.7889420E-04)
 number of electron      10.0000025 magnetization 
 augmentation part        0.7211816 magnetization 

 Broyden mixing:
  rms(total) = 0.68940E+00    rms(broyden)= 0.68811E+00
  rms(prec ) = 0.81835E+00
  weight for this iteration     100.00

 Free energy of the ion-electron system (eV)
  ---------------------------------------------------
  alpha Z        PSCENC =         0.43695755
  Ewald energy   TEWEN  =        98.58894300
  -Hartree energ DENC   =      -560.30936031
  -exchange      EXHF   =         0.00000000
  -V(xc)+E(xc)   XCENC  =        39.19352022
  PAW double counting   =       455.07152327     -457.43959975
  entropy T*S    EENTRO =        -0.00000000
  eigenvalues    EBANDS =      -170.52340736
  atomic energy  EATOM  =       579.39041991
  Solvation  Ediel_sol  =         0.00000000
  ---------------------------------------------------
  free energy    TOTEN  =       -15.59100347 eV

  energy without entropy =      -15.59100347  energy(sigma->0) =      -15.59100347


--------------------------------------------------------------------------------------------------------




--------------------------------------- Iteration      1(   6)  ---------------------------------------


    POTLOK:  cpu time    0.1725: real time    0.1734
    SETDIJ:  cpu time    0.0009: real time    0.0009
     EDDAV:  cpu time    0.6827: real time    0.6865
       DOS:  cpu time    0.0002: real time    0.0002
    CHARGE:  cpu time    0.0438: real time    0.0442
    MIXING:  cpu time    0.0057: real time    0.0058
    --------------------------------------------
      LOOP:  cpu time    0.9058: real time    0.9111

 eigenvalue-minimisations  :   144
 total energy-change (2. order) : 0.6330067E+00  (-0.3525033E+00)
 number of electron      10.0000014 magnetization 
 augmentation part        0.6420443 magnetization 

 Broyden mixing:
  rms(total) = 0.37313E+00    rms(broyden)= 0.37277E+00
  rms(prec ) = 0.42782E+00
  weight for this iteration     100.00

 eigenvalues of (default mixing * dielectric matrix)
  average eigenvalue GAMMA=   1.0786
  1.0786

 Free energy of the ion-electron system (eV)
  ---------------------------------------------------
  alpha Z        PSCENC =         0.43695755
  Ewald energy   TEWEN  =        98.58894300
  -Hartree energ DENC   =      -574.12678894
  -exchange      EXHF   =         0.00000000
  -V(xc)+E(xc)   XCENC  =        39.99850415
  PAW double counting   =       600.78609840     -603.31157230
  entropy T*S    EENTRO =        -0.00000000
  eigenvalues    EBANDS =      -156.72055851
  atomic energy  EATOM  =       579.39041991
  Solvation  Ediel_sol  =         0.00000000
  ---------------------------------------------------
  free energy    TOTEN  =       -14.95799675 eV

  energy without entropy =      -14.95799675  energy(sigma->0) =      -14.95799675


--------------------------------------------------------------------------------------------------------




--------------------------------------- Iteration      1(   7)  ---------------------------------------


    POTLOK:  cpu time    0.1725: real time    0.1734
    SETDIJ:  cpu time    0.0010: real time    0.0010
     EDDAV:  cpu time    0.7580: real time    0.7677
       DOS:  cpu time    0.0001: real time    0.0001
    CHARGE:  cpu time    0.0436: real time    0.0439
    MIXING:  cpu time    0.0051: real time    0.0056
    --------------------------------------------
      LOOP:  cpu time    0.9803: real time    0.9917

 eigenvalue-minimisations  :   168
 total energy-change (2. order) : 0.1292128E+00  (-0.6882981E-01)
 number of electron      10.0000018 magnetization 
 augmentation part        0.6639510 magnetization 

 Broyden mixing:
  rms(total) = 0.19423E+00    rms(broyden)= 0.19421E+00
  rms(prec ) = 0.21999E+00
  weight for this iteration     100.00

 eigenvalues of (default mixing * dielectric matrix)
  average eigenvalue GAMMA=   1.4609
  0.7505  2.1713

 Free energy of the ion-electron system (eV)
  ---------------------------------------------------
  alpha Z        PSCENC =         0.43695755
  Ewald energy   TEWEN  =        98.58894300
  -Hartree energ DENC   =      -575.88932176
  -exchange      EXHF   =         0.00000000
  -V(xc)+E(xc)   XCENC  =        40.12022376
  PAW double counting   =       697.17603908     -699.66417873
  entropy T*S    EENTRO =        -0.00000000
  eigenvalues    EBANDS =      -154.98786674
  atomic energy  EATOM  =       579.39041991
  Solvation  Ediel_sol  =         0.00000000
  ---------------------------------------------------
  free energy    TOTEN  =       -14.82878393 eV

  energy without entropy =      -14.82878393  energy(sigma->0) =      -14.82878393


--------------------------------------------------------------------------------------------------------




--------------------------------------- Iteration      1(   8)  ---------------------------------------


    POTLOK:  cpu time    0.1685: real time    0.1711
    SETDIJ:  cpu time    0.0008: real time    0.0010
     EDDAV:  cpu time    0.7692: real time    0.7701
       DOS:  cpu time    0.0001: real time    0.0001
    CHARGE:  cpu time    0.0441: real time    0.0444
    MIXING:  cpu time    0.0058: real time    0.0060
    --------------------------------------------
      LOOP:  cpu time    0.9886: real time    0.9927

 eigenvalue-minimisations  :   168
 total energy-change (2. order) : 0.3524866E-01  (-0.1518110E-01)
 number of electron      10.0000017 magnetization 
 augmentation part        0.6530352 magnetization 

 Broyden mixing:
  rms(total) = 0.50317E-01    rms(broyden)= 0.50296E-01
  rms(prec ) = 0.56953E-01
  weight for this iteration     100.00

 eigenvalues of (default mixing * dielectric matrix)
  average eigenvalue GAMMA=   1.5590
  2.5014  1.4419  0.7338

 Free energy of the ion-electron system (eV)
  ---------------------------------------------------
  alpha Z        PSCENC =         0.43695755
  Ewald energy   TEWEN  =        98.58894300
  -Hartree energ DENC   =      -580.49616045
  -exchange      EXHF   =         0.00000000
  -V(xc)+E(xc)   XCENC  =        40.39950567
  PAW double counting   =       827.19335454     -829.68155234
  entropy T*S    EENTRO =        -0.00000000
  eigenvalues    EBANDS =      -150.62500314
  atomic energy  EATOM  =       579.39041991
  Solvation  Ediel_sol  =         0.00000000
  ---------------------------------------------------
  free energy    TOTEN  =       -14.79353527 eV

  energy without entropy =      -14.79353527  energy(sigma->0) =      -14.79353527


--------------------------------------------------------------------------------------------------------




--------------------------------------- Iteration      1(   9)  ---------------------------------------


    POTLOK:  cpu time    0.1698: real time    0.1707
    SETDIJ:  cpu time    0.0008: real time    0.0009
     EDDAV:  cpu time    0.7986: real time    0.8083
       DOS:  cpu time    0.0001: real time    0.0001
    CHARGE:  cpu time    0.0435: real time    0.0437
    MIXING:  cpu time    0.0063: real time    0.0065
    --------------------------------------------
      LOOP:  cpu time    1.0191: real time    1.0302

 eigenvalue-minimisations  :   180
 total energy-change (2. order) : 0.6146026E-03  (-0.7475892E-03)
 number of electron      10.0000017 magnetization 
 augmentation part        0.6508566 magnetization 

 Broyden mixing:
  rms(total) = 0.11057E-01    rms(broyden)= 0.11044E-01
  rms(prec ) = 0.16778E-01
  weight for this iteration     100.00

 eigenvalues of (default mixing * dielectric matrix)
  average eigenvalue GAMMA=   1.4478
  2.3666  1.7370  0.7538  0.9338

 Free energy of the ion-electron system (eV)
  ---------------------------------------------------
  alpha Z        PSCENC =         0.43695755
  Ewald energy   TEWEN  =        98.58894300
  -Hartree energ DENC   =      -580.50641582
  -exchange      EXHF   =         0.00000000
  -V(xc)+E(xc)   XCENC  =        40.39864245
  PAW double counting   =       863.04014280     -865.50387274
  entropy T*S    EENTRO =        -0.00000000
  eigenvalues    EBANDS =      -150.63773783
  atomic energy  EATOM  =       579.39041991
  Solvation  Ediel_sol  =         0.00000000
  ---------------------------------------------------
  free energy    TOTEN  =       -14.79292067 eV

  energy without entropy =      -14.79292067  energy(sigma->0) =      -14.79292067


--------------------------------------------------------------------------------------------------------




--------------------------------------- Iteration      1(  10)  ---------------------------------------


    POTLOK:  cpu time    0.1693: real time    0.1705
    SETDIJ:  cpu time    0.0010: real time    0.0010
     EDDAV:  cpu time    0.7544: real time    0.7669
       DOS:  cpu time    0.0001: real time    0.0001
    CHARGE:  cpu time    0.0439: real time    0.0449
    MIXING:  cpu time    0.0058: real time    0.0063
    --------------------------------------------
      LOOP:  cpu time    0.9745: real time    0.9896

 eigenvalue-minimisations  :   168
 total energy-change (2. order) :-0.7130237E-03  (-0.1155555E-03)
 number of electron      10.0000017 magnetization 
 augmentation part        0.6520572 magnetization 

 Broyden mixing:
  rms(total) = 0.36107E-02    rms(broyden)= 0.36074E-02
  rms(prec ) = 0.89957E-02
  weight for this iteration     100.00

 eigenvalues of (default mixing * dielectric matrix)
  average eigenvalue GAMMA=   1.6321
  0.7510  0.9657  2.5144  2.2338  1.6957

 Free energy of the ion-electron system (eV)
  ---------------------------------------------------
  alpha Z        PSCENC =         0.43695755
  Ewald energy   TEWEN  =        98.58894300
  -Hartree energ DENC   =      -580.35603768
  -exchange      EXHF   =         0.00000000
  -V(xc)+E(xc)   XCENC  =        40.38661458
  PAW double counting   =       861.81076568     -864.26652530
  entropy T*S    EENTRO =        -0.00000000
  eigenvalues    EBANDS =      -150.78477144
  atomic energy  EATOM  =       579.39041991
  Solvation  Ediel_sol  =         0.00000000
  ---------------------------------------------------
  free energy    TOTEN  =       -14.79363369 eV

  energy without entropy =      -14.79363369  energy(sigma->0) =      -14.79363369


--------------------------------------------------------------------------------------------------------




--------------------------------------- Iteration      1(  11)  ---------------------------------------


    POTLOK:  cpu time    0.1681: real time    0.1696
    SETDIJ:  cpu time    0.0014: real time    0.0014
     EDDAV:  cpu time    0.6835: real time    0.6840
       DOS:  cpu time    0.0001: real time    0.0001
    CHARGE:  cpu time    0.0437: real time    0.0440
    MIXING:  cpu time    0.0063: real time    0.0078
    --------------------------------------------
      LOOP:  cpu time    0.9031: real time    0.9070

 eigenvalue-minimisations  :   144
 total energy-change (2. order) :-0.1784564E-02  (-0.4952251E-04)
 number of electron      10.0000017 magnetization 
 augmentation part        0.6521909 magnetization 

 Broyden mixing:
  rms(total) = 0.18484E-02    rms(broyden)= 0.18466E-02
  rms(prec ) = 0.43744E-02
  weight for this iteration     100.00

 eigenvalues of (default mixing * dielectric matrix)
  average eigenvalue GAMMA=   1.6644
  3.0797  2.4221  0.7497  1.6184  0.9725  1.1442

 Free energy of the ion-electron system (eV)
  ---------------------------------------------------
  alpha Z        PSCENC =         0.43695755
  Ewald energy   TEWEN  =        98.58894300
  -Hartree energ DENC   =      -580.71945820
  -exchange      EXHF   =         0.00000000
  -V(xc)+E(xc)   XCENC  =        40.39952492
  PAW double counting   =       861.26113348     -863.70996977
  entropy T*S    EENTRO =        -0.00000000
  eigenvalues    EBANDS =      -150.44296914
  atomic energy  EATOM  =       579.39041991
  Solvation  Ediel_sol  =         0.00000000
  ---------------------------------------------------
  free energy    TOTEN  =       -14.79541826 eV

  energy without entropy =      -14.79541826  energy(sigma->0) =      -14.79541826


--------------------------------------------------------------------------------------------------------




--------------------------------------- Iteration      1(  12)  ---------------------------------------


    POTLOK:  cpu time    0.1647: real time    0.1670
    SETDIJ:  cpu time    0.0009: real time    0.0009
     EDDAV:  cpu time    0.9184: real time    0.9330
       DOS:  cpu time    0.0001: real time    0.0001
    CHARGE:  cpu time    0.0428: real time    0.0438
    MIXING:  cpu time    0.0067: real time    0.0067
    --------------------------------------------
      LOOP:  cpu time    1.1336: real time    1.1514

 eigenvalue-minimisations  :   216
 total energy-change (2. order) :-0.7371937E-03  (-0.8355207E-05)
 number of electron      10.0000017 magnetization 
 augmentation part        0.6520105 magnetization 

 Broyden mixing:
  rms(total) = 0.11337E-02    rms(broyden)= 0.11335E-02
  rms(prec ) = 0.28580E-02
  weight for this iteration     100.00

 eigenvalues of (default mixing * dielectric matrix)
  average eigenvalue GAMMA=   1.9399
  4.3050  2.5347  2.2896  1.6938  0.7497  1.0323  0.9744

 Free energy of the ion-electron system (eV)
  ---------------------------------------------------
  alpha Z        PSCENC =         0.43695755
  Ewald energy   TEWEN  =        98.58894300
  -Hartree energ DENC   =      -580.79226313
  -exchange      EXHF   =         0.00000000
  -V(xc)+E(xc)   XCENC  =        40.40029452
  PAW double counting   =       860.44797387     -862.89717009
  entropy T*S    EENTRO =        -0.00000000
  eigenvalues    EBANDS =      -150.37131109
  atomic energy  EATOM  =       579.39041991
  Solvation  Ediel_sol  =         0.00000000
  ---------------------------------------------------
  free energy    TOTEN  =       -14.79615545 eV

  energy without entropy =      -14.79615545  energy(sigma->0) =      -14.79615545


--------------------------------------------------------------------------------------------------------




--------------------------------------- Iteration      1(  13)  ---------------------------------------


    POTLOK:  cpu time    0.1655: real time    0.1697
    SETDIJ:  cpu time    0.0009: real time    0.0009
     EDDAV:  cpu time    0.8018: real time    0.8078
       DOS:  cpu time    0.0001: real time    0.0001
    CHARGE:  cpu time    0.0432: real time    0.0439
    MIXING:  cpu time    0.0064: real time    0.0068
    --------------------------------------------
      LOOP:  cpu time    1.0179: real time    1.0294

 eigenvalue-minimisations  :   180
 total energy-change (2. order) :-0.9948722E-03  (-0.1409315E-04)
 number of electron      10.0000017 magnetization 
 augmentation part        0.6519811 magnetization 

 Broyden mixing:
  rms(total) = 0.58573E-03    rms(broyden)= 0.58563E-03
  rms(prec ) = 0.12274E-02
  weight for this iteration     100.00

 eigenvalues of (default mixing * dielectric matrix)
  average eigenvalue GAMMA=   2.0718
  5.5232  2.8178  2.4257  0.7499  1.5307  1.5307  0.9568  1.0400

 Free energy of the ion-electron system (eV)
  ---------------------------------------------------
  alpha Z        PSCENC =         0.43695755
  Ewald energy   TEWEN  =        98.58894300
  -Hartree energ DENC   =      -580.86062723
  -exchange      EXHF   =         0.00000000
  -V(xc)+E(xc)   XCENC  =        40.40032460
  PAW double counting   =       860.52108665     -862.97274734
  entropy T*S    EENTRO =        -0.00000000
  eigenvalues    EBANDS =      -150.30150747
  atomic energy  EATOM  =       579.39041991
  Solvation  Ediel_sol  =         0.00000000
  ---------------------------------------------------
  free energy    TOTEN  =       -14.79715032 eV

  energy without entropy =      -14.79715032  energy(sigma->0) =      -14.79715032


--------------------------------------------------------------------------------------------------------




--------------------------------------- Iteration      1(  14)  ---------------------------------------


    POTLOK:  cpu time    0.1715: real time    0.1734
    SETDIJ:  cpu time    0.0009: real time    0.0009
     EDDAV:  cpu time    0.7652: real time    0.7669
       DOS:  cpu time    0.0001: real time    0.0001
    CHARGE:  cpu time    0.0433: real time    0.0439
    MIXING:  cpu time    0.0067: real time    0.0071
    --------------------------------------------
      LOOP:  cpu time    0.9877: real time    0.9923

 eigenvalue-minimisations  :   168
 total energy-change (2. order) :-0.3296237E-03  (-0.2540901E-05)
 number of electron      10.0000017 magnetization 
 augmentation part        0.6520366 magnetization 

 Broyden mixing:
  rms(total) = 0.39208E-03    rms(broyden)= 0.39189E-03
  rms(prec ) = 0.71374E-03
  weight for this iteration     100.00

 eigenvalues of (default mixing * dielectric matrix)
  average eigenvalue GAMMA=   2.3382
  6.9994  3.6409  2.5405  2.4215  1.6511  0.7499  0.9483  1.0461  1.0461

 Free energy of the ion-electron system (eV)
  ---------------------------------------------------
  alpha Z        PSCENC =         0.43695755
  Ewald energy   TEWEN  =        98.58894300
  -Hartree energ DENC   =      -580.86168130
  -exchange      EXHF   =         0.00000000
  -V(xc)+E(xc)   XCENC  =        40.39971659
  PAW double counting   =       860.64091645     -863.09254411
  entropy T*S    EENTRO =        -0.00000000
  eigenvalues    EBANDS =      -150.30020803
  atomic energy  EATOM  =       579.39041991
  Solvation  Ediel_sol  =         0.00000000
  ---------------------------------------------------
  free energy    TOTEN  =       -14.79747995 eV

  energy without entropy =      -14.79747995  energy(sigma->0) =      -14.79747995


--------------------------------------------------------------------------------------------------------




--------------------------------------- Iteration      1(  15)  ---------------------------------------


    POTLOK:  cpu time    0.1685: real time    0.1720
    SETDIJ:  cpu time    0.0008: real time    0.0008
     EDDAV:  cpu time    0.8479: real time    0.8486
       DOS:  cpu time    0.0001: real time    0.0001
    CHARGE:  cpu time    0.0467: real time    0.0471
    MIXING:  cpu time    0.0070: real time    0.0074
    --------------------------------------------
      LOOP:  cpu time    1.0712: real time    1.0760

 eigenvalue-minimisations  :   192
 total energy-change (2. order) :-0.1620283E-03  (-0.1207903E-05)
 number of electron      10.0000017 magnetization 
 augmentation part        0.6520168 magnetization 

 Broyden mixing:
  rms(total) = 0.17945E-03    rms(broyden)= 0.17938E-03
  rms(prec ) = 0.29243E-03
  weight for this iteration     100.00

 eigenvalues of (default mixing * dielectric matrix)
  average eigenvalue GAMMA=   2.4405
  7.6415  4.1143  2.6401  2.4589  2.1376  1.6449  0.7499  1.0771  0.9618  0.9794

 Free energy of the ion-electron system (eV)
  ---------------------------------------------------
  alpha Z        PSCENC =         0.43695755
  Ewald energy   TEWEN  =        98.58894300
  -Hartree energ DENC   =      -580.84925122
  -exchange      EXHF   =         0.00000000
  -V(xc)+E(xc)   XCENC  =        40.39876879
  PAW double counting   =       860.59200398     -863.04277341
  entropy T*S    EENTRO =        -0.00000000
  eigenvalues    EBANDS =      -150.31271058
  atomic energy  EATOM  =       579.39041991
  Solvation  Ediel_sol  =         0.00000000
  ---------------------------------------------------
  free energy    TOTEN  =       -14.79764197 eV

  energy without entropy =      -14.79764197  energy(sigma->0) =      -14.79764197


--------------------------------------------------------------------------------------------------------




--------------------------------------- Iteration      1(  16)  ---------------------------------------


    POTLOK:  cpu time    0.1854: real time    0.1903
    SETDIJ:  cpu time    0.0009: real time    0.0010
     EDDAV:  cpu time    0.8015: real time    0.8161
       DOS:  cpu time    0.0001: real time    0.0001
    --------------------------------------------
      LOOP:  cpu time    0.9879: real time    1.0075

 eigenvalue-minimisations  :   180
 total energy-change (2. order) :-0.4649491E-04  (-0.1807347E-06)
 number of electron      10.0000017 magnetization 
 augmentation part        0.6520168 magnetization 

 Free energy of the ion-electron system (eV)
  ---------------------------------------------------
  alpha Z        PSCENC =         0.43695755
  Ewald energy   TEWEN  =        98.58894300
  -Hartree energ DENC   =      -580.84964761
  -exchange      EXHF   =         0.00000000
  -V(xc)+E(xc)   XCENC  =        40.39889027
  PAW double counting   =       860.59906663     -863.05001157
  entropy T*S    EENTRO =        -0.00000000
  eigenvalues    EBANDS =      -150.31230665
  atomic energy  EATOM  =       579.39041991
  Solvation  Ediel_sol  =         0.00000000
  ---------------------------------------------------
  free energy    TOTEN  =       -14.79768847 eV

  energy without entropy =      -14.79768847  energy(sigma->0) =      -14.79768847


--------------------------------------------------------------------------------------------------------




 average (electrostatic) potential at core
  the test charge radii are     0.6991  0.7215
  (the norm of the test charge is              1.0000)
       1 -61.5912       2 -83.4383
 
 
 
 E-fermi :  -8.6516     XC(G=0):  -0.6434     alpha+bet : -0.1751


 k-point     1 :       0.0000    0.0000    0.0000
  band No.  band energies     occupation 
      1     -29.1124      2.00000
      2     -13.9174      2.00000
      3     -11.6036      2.00000
      4     -11.6036      2.00000
      5      -8.9171      2.00000
      6      -2.0258      0.00000
      7      -2.0258      0.00000
      8      -0.2045      0.00000
      9       1.0659      0.00000
     10       1.1851      0.00000
     11       1.1851      0.00000
     12       1.3113      0.00000

 k-point     2 :       0.5000    0.0000    0.0000
  band No.  band energies     occupation 
      1     -29.1128      2.00000
      2     -13.9179      2.00000
      3     -11.6043      2.00000
      4     -11.6042      2.00000
      5      -8.9178      2.00000
      6      -2.0305      0.00000
      7      -2.0272      0.00000
      8       0.0874      0.00000
      9       0.2692      0.00000
     10       1.2607      0.00000
     11       1.3911      0.00000
     12       1.6348      0.00000

 k-point     3 :       0.5000    0.5000    0.0000
  band No.  band energies     occupation 
      1     -29.1127      2.00000
      2     -13.9179      2.00000
      3     -11.6039      2.00000
      4     -11.6039      2.00000
      5      -8.9177      2.00000
      6      -2.0303      0.00000
      7      -2.0303      0.00000
      8       0.3656      0.00000
      9       0.5748      0.00000
     10       0.5748      0.00000
     11       0.6967      0.00000
     12       1.4141      0.00000

 k-point     4 :       0.0000    0.0000    0.5000
  band No.  band energies     occupation 
      1     -29.1128      2.00000
      2     -13.9180      2.00000
      3     -11.6042      2.00000
      4     -11.6042      2.00000
      5      -8.9179      2.00000
      6      -2.0281      0.00000
      7      -2.0281      0.00000
      8       0.0351      0.00000
      9       0.2620      0.00000
     10       1.3876      0.00000
     11       1.3876      0.00000
     12       1.5304      0.00000

 k-point     5 :       0.5000    0.0000    0.5000
  band No.  band energies     occupation 
      1     -29.1128      2.00000
      2     -13.9179      2.00000
      3     -11.6044      2.00000
      4     -11.6042      2.00000
      5      -8.9177      2.00000
      6      -2.0306      0.00000
      7      -2.0278      0.00000
      8       0.3000      0.00000
      9       0.5415      0.00000
     10       0.5417      0.00000
     11       0.7713      0.00000
     12       1.5642      0.00000

 k-point     6 :       0.5000    0.5000    0.5000
  band No.  band energies     occupation 
      1     -29.1124      2.00000
      2     -13.9175      2.00000
      3     -11.6033      2.00000
      4     -11.6033      2.00000
      5      -8.9172      2.00000
      6      -2.0298      0.00000
      7      -2.0298      0.00000
      8       0.5456      0.00000
      9       0.8089      0.00000
     10       0.8089      0.00000
     11       1.0151      0.00000
     12       1.1352      0.00000


--------------------------------------------------------------------------------------------------------


 soft charge-density along one line, spin component           1
         0         1         2         3         4         5         6         7         8         9
 total charge-density along one line
 
 pseudopotential strength for first ion, spin component:           1
 10.407  13.845  -0.000   0.025  -0.000   0.000  -0.083   0.000
 13.845  18.417  -0.000   0.033  -0.000   0.000  -0.110   0.000
 -0.000  -0.000  -4.541  -0.000   0.000   8.892   0.000  -0.000
  0.025   0.033  -0.000  -4.549  -0.000   0.000   8.895   0.000
 -0.000  -0.000   0.000  -0.000  -4.541  -0.000   0.000   8.892
  0.000   0.000   8.892   0.000  -0.000 -19.560  -0.000   0.000
 -0.083  -0.110   0.000   8.895   0.000  -0.000 -19.540  -0.000
  0.000   0.000  -0.000   0.000   8.892   0.000  -0.000 -19.560
 total augmentation occupancy for first ion, spin component:           1
  7.508  -3.427   0.000   2.081  -0.000   0.000   0.375  -0.000
 -3.427   1.960   0.000  -1.597  -0.000   0.000  -0.231  -0.000
  0.000   0.000   0.828   0.000   0.000   0.063   0.000  -0.000
  2.081  -1.597   0.000   2.235  -0.000  -0.000   0.214   0.000
 -0.000  -0.000   0.000  -0.000   0.828   0.000   0.000   0.063
  0.000   0.000   0.063  -0.000   0.000   0.005   0.000   0.000
  0.375  -0.231   0.000   0.214   0.000   0.000   0.028   0.000
 -0.000  -0.000  -0.000   0.000   0.063   0.000   0.000   0.005


------------------------ aborting loop because EDIFF is reached ----------------------------------------


    CHARGE:  cpu time    0.0446: real time    0.0451
    FORLOC:  cpu time    0.0042: real time    0.0043
    FORNL :  cpu time    0.0246: real time    0.0247
    STRESS:  cpu time    0.6733: real time    0.6773
    FORCOR:  cpu time    0.1384: real time    0.1590
    FORHAR:  cpu time    0.0459: real time    0.0492
    MIXING:  cpu time    0.0079: real time    0.0080
    OFIELD:  cpu time    0.0001: real time    0.0001

  FORCE on cell =-STRESS in cart. coord.  units (eV):
  Direction    XX          YY          ZZ          XY          YZ          ZX
  --------------------------------------------------------------------------------------
  Alpha Z     0.43696     0.43696     0.43696
  Ewald     -68.56117   -68.56117   235.71124    -0.00000     0.00000     0.00000
  Hartree   157.19610   157.19610   266.45151    -0.00000    -0.00000    -0.00000
  E(xc)     -43.97790   -43.97790   -42.86918    -0.00000    -0.00000    -0.00000
  Local    -224.33950  -224.33950  -611.63075    -0.00000     0.00000    -0.00000
  n-local   -18.45357   -18.45266   -29.75828     0.00000    -0.00000     0.00000
  augment     6.22102     6.22102     5.74604    -0.00000    -0.00000    -0.00000
  Kinetic   190.69976   190.70022   175.02293     0.00000    -0.00000    -0.00000
  Fock        0.00000     0.00000     0.00000     0.00000     0.00000     0.00000
  -------------------------------------------------------------------------------------
  Total      -0.77762    -0.77762    -0.88954     0.00000     0.00000    -0.00000
  in kB      -1.24588    -1.24588    -1.42520     0.00000     0.00000    -0.00000
  external pressure =       -1.31 kB  Pullay stress =        0.00 kB


 VOLUME and BASIS-vectors are now :
 -----------------------------------------------------------------------------
  energy-cutoff  :      400.00
  volume of cell :     1000.00
      direct lattice vectors                 reciprocal lattice vectors
    10.000000000  0.000000000  0.000000000     0.100000000  0.000000000  0.000000000
     0.000000000 10.000000000  0.000000000     0.000000000  0.100000000  0.000000000
     0.000000000  0.000000000 10.000000000     0.000000000  0.000000000  0.100000000

  length of vectors
    10.000000000 10.000000000 10.000000000     0.100000000  0.100000000  0.100000000


 FORCES acting on ions
    electron-ion (+dipol)            ewald-force                    non-local-force                 convergence-correction
 -----------------------------------------------------------------------------------------------
   -.872E-15 0.453E-13 0.234E+03   -.229E-16 -.591E-16 -.262E+03   0.000E+00 0.517E-25 0.281E+02   0.393E-14 0.722E-14 0.102E-02
   0.150E-14 0.122E-12 -.203E+03   0.656E-16 0.803E-16 0.262E+03   0.000E+00 0.000E+00 -.594E+02   0.424E-14 0.226E-13 0.122E-02
 -----------------------------------------------------------------------------------------------
   0.630E-15 0.167E-12 0.313E+02   0.428E-16 0.212E-16 0.000E+00   0.000E+00 0.517E-25 -.313E+02   0.818E-14 0.298E-13 0.225E-02
 
 
 POSITION                                       TOTAL-FORCE (eV/Angst)
 -----------------------------------------------------------------------------------
      0.00000      0.00000      9.99179         0.000000      0.000000      0.125210
      0.00000      0.00000      1.13651         0.000000     -0.000000     -0.125210
 -----------------------------------------------------------------------------------
    total drift:                                0.000000      0.000000     -0.009239


--------------------------------------------------------------------------------------------------------



  FREE ENERGIE OF THE ION-ELECTRON SYSTEM (eV)
  ---------------------------------------------------
  free  energy   TOTEN  =       -14.79768847 eV

  energy  without entropy=      -14.79768847  energy(sigma->0) =      -14.79768847
 


--------------------------------------------------------------------------------------------------------


    POTLOK:  cpu time    0.1650: real time    0.1659


--------------------------------------------------------------------------------------------------------


 writing wavefunctions
     LOOP+:  cpu time   17.3450: real time   17.5624
    4ORBIT:  cpu time    0.0000: real time    0.0000

 total amount of memory used by VASP MPI-rank0    69055. kBytes
=======================================================================

   base      :      30000. kBytes
   nonl-proj :      14548. kBytes
   fftplans  :       6310. kBytes
   grid      :      14696. kBytes
   one-center:          6. kBytes
   wavefun   :       3495. kBytes
 
  
  
 General timing and accounting informations for this job:
 ========================================================
  
                  Total CPU time used (sec):       18.412
                            User time (sec):       17.876
                          System time (sec):        0.537
                         Elapsed time (sec):       18.635
  
                   Maximum memory used (kb):      119328.
                   Average memory used (kb):           0.
  
                          Minor page faults:        74763
                          Major page faults:            0
                 Voluntary context switches:         1131
