<?xml version="1.0" encoding="ISO-8859-1"?>
<modeling>
 <generator>
  <i name="program" type="string">vasp </i>
  <i name="version" type="string">5.4.4.18Apr17-6-g9f103f2a35  </i>
  <i name="subversion" type="string">(build Sep 22 2020 16:42:52) complex            parallel </i>
  <i name="platform" type="string">LinuxIFC </i>
  <i name="date" type="string">2020 09 22 </i>
  <i name="time" type="string">17:07:35 </i>
 </generator>
 <incar>
  <i type="string" name="PREC">normal</i>
  <i type="int" name="ISMEAR">     0</i>
  <i name="SIGMA">      0.05000000</i>
  <v type="int" name="KPOINT_BSE">    -1     0     0     0</v>
 </incar>
 <structure name="primitive_cell" >
  <crystal>
   <varray name="basis" >
    <v>      10.00000000       0.00000000       0.00000000 </v>
    <v>       0.00000000      10.00000000       0.00000000 </v>
    <v>       0.00000000       0.00000000      10.00000000 </v>
   </varray>
   <i name="volume">   1000.00000000 </i>
   <varray name="rec_basis" >
    <v>       0.10000000       0.00000000       0.00000000 </v>
    <v>       0.00000000       0.10000000       0.00000000 </v>
    <v>       0.00000000       0.00000000       0.10000000 </v>
   </varray>
  </crystal>
  <varray name="positions" >
   <v>       0.00000000       0.00000000      -0.00082082 </v>
   <v>       0.00000000       0.00000000       0.11365082 </v>
  </varray>
 </structure>
 <varray name="primitive_index" >
  <v type="int" >        1 </v>
  <v type="int" >        2 </v>
 </varray>
 <kpoints>
  <generation param="Gamma">
   <v type="int" name="divisions">       2        2        2 </v>
   <v name="usershift">      0.00000000       0.00000000       0.00000000 </v>
   <v name="genvec1">      0.50000000       0.00000000       0.00000000 </v>
   <v name="genvec2">      0.00000000       0.50000000       0.00000000 </v>
   <v name="genvec3">      0.00000000       0.00000000       0.50000000 </v>
   <v name="shift">      0.00000000       0.00000000       0.00000000 </v>
  </generation>
  <varray name="kpointlist" >
   <v>       0.00000000       0.00000000       0.00000000 </v>
   <v>       0.50000000       0.00000000       0.00000000 </v>
   <v>       0.50000000       0.50000000       0.00000000 </v>
   <v>       0.00000000       0.00000000       0.50000000 </v>
   <v>       0.50000000       0.00000000       0.50000000 </v>
   <v>       0.50000000       0.50000000       0.50000000 </v>
  </varray>
  <varray name="weights" >
   <v>       0.12500000 </v>
   <v>       0.25000000 </v>
   <v>       0.12500000 </v>
   <v>       0.12500000 </v>
   <v>       0.25000000 </v>
   <v>       0.12500000 </v>
  </varray>
 </kpoints>
 <parameters>
  <separator name="general" >
   <i type="string" name="SYSTEM">unknown system</i>
   <i type="logical" name="LCOMPAT"> F  </i>
  </separator>
  <separator name="electronic" >
   <i type="string" name="PREC">normal</i>
   <i name="ENMAX">    400.00000000</i>
   <i name="ENAUG">    644.87300000</i>
   <i name="EDIFF">      0.00010000</i>
   <i type="int" name="IALGO">    38</i>
   <i type="int" name="IWAVPR">    10</i>
   <i type="int" name="NBANDS">    12</i>
   <i name="NELECT">     10.00000000</i>
   <i type="int" name="TURBO">     0</i>
   <i type="int" name="IRESTART">     0</i>
   <i type="int" name="NREBOOT">     0</i>
   <i type="int" name="NMIN">     0</i>
   <i name="EREF">      0.00000000</i>
   <separator name="electronic smearing" >
    <i type="int" name="ISMEAR">     0</i>
    <i name="SIGMA">      0.05000000</i>
    <i name="KSPACING">      0.50000000</i>
    <i type="logical" name="KGAMMA"> T  </i>
   </separator>
   <separator name="electronic projectors" >
    <i type="logical" name="LREAL"> F  </i>
    <v name="ROPT">      0.00000000      0.00000000</v>
    <i type="int" name="LMAXPAW">  -100</i>
    <i type="int" name="LMAXMIX">     2</i>
    <i type="logical" name="NLSPLINE"> F  </i>
   </separator>
   <separator name="electronic startup" >
    <i type="int" name="ISTART">     0</i>
    <i type="int" name="ICHARG">     2</i>
    <i type="int" name="INIWAV">     1</i>
   </separator>
   <separator name="electronic spin" >
    <i type="int" name="ISPIN">     1</i>
    <i type="logical" name="LNONCOLLINEAR"> F  </i>
    <v name="MAGMOM">      1.00000000      1.00000000</v>
    <i name="NUPDOWN">     -1.00000000</i>
    <i type="logical" name="LSORBIT"> F  </i>
    <v name="SAXIS">      0.00000000      0.00000000      1.00000000</v>
    <i type="logical" name="LSPIRAL"> F  </i>
    <v name="QSPIRAL">      0.00000000      0.00000000      0.00000000</v>
    <i type="logical" name="LZEROZ"> F  </i>
   </separator>
   <separator name="electronic exchange-correlation" >
    <i type="logical" name="LASPH"> F  </i>
    <i type="logical" name="LMETAGGA"> F  </i>
   </separator>
   <separator name="electronic convergence" >
    <i type="int" name="NELM">    60</i>
    <i type="int" name="NELMDL">     0</i>
    <i type="int" name="NELMIN">     2</i>
    <i name="ENINI">    400.00000000</i>
    <separator name="electronic convergence detail" >
     <i type="logical" name="LDIAG"> T  </i>
     <i type="logical" name="LSUBROT"> F  </i>
     <i name="WEIMIN">      0.00000000</i>
     <i name="EBREAK">      0.00000208</i>
     <i name="DEPER">      0.30000000</i>
     <i type="int" name="NRMM">     4</i>
     <i name="TIME">      0.40000000</i>
    </separator>
   </separator>
   <separator name="electronic mixer" >
    <i name="AMIX">      0.40000000</i>
    <i name="BMIX">      1.00000000</i>
    <i name="AMIN">      0.10000000</i>
    <i name="AMIX_MAG">      1.60000000</i>
    <i name="BMIX_MAG">      1.00000000</i>
    <separator name="electronic mixer details" >
     <i type="int" name="IMIX">     4</i>
     <i type="logical" name="MIXFIRST"> F  </i>
     <i type="int" name="MAXMIX">   -45</i>
     <i name="WC">    100.00000000</i>
     <i type="int" name="INIMIX">     1</i>
     <i type="int" name="MIXPRE">     1</i>
     <i type="int" name="MREMOVE">     5</i>
    </separator>
   </separator>
   <separator name="electronic dipolcorrection" >
    <i type="logical" name="LDIPOL"> F  </i>
    <i type="logical" name="LMONO"> F  </i>
    <i type="int" name="IDIPOL">     0</i>
    <i name="EPSILON">      1.00000000</i>
    <v name="DIPOL">   -100.00000000   -100.00000000   -100.00000000</v>
    <i name="EFIELD">      0.00000000</i>
   </separator>
  </separator>
  <separator name="grids" >
   <i type="int" name="NGX">    50</i>
   <i type="int" name="NGY">    50</i>
   <i type="int" name="NGZ">    50</i>
   <i type="int" name="NGXF">   100</i>
   <i type="int" name="NGYF">   100</i>
   <i type="int" name="NGZF">   100</i>
   <i type="logical" name="ADDGRID"> F  </i>
  </separator>
  <separator name="ionic" >
   <i type="int" name="NSW">     0</i>
   <i type="int" name="IBRION">    -1</i>
   <i type="int" name="MDALGO">     0</i>
   <i type="int" name="ISIF">     2</i>
   <i name="PSTRESS">      0.00000000</i>
   <i name="EDIFFG">      0.00100000</i>
   <i type="int" name="NFREE">     0</i>
   <i name="POTIM">      0.50000000</i>
   <i name="SMASS">     -3.00000000</i>
   <i name="SCALEE">      1.00000000</i>
  </separator>
  <separator name="ionic md" >
   <i name="TEBEG">      0.00010000</i>
   <i name="TEEND">      0.00010000</i>
   <i type="int" name="NBLOCK">     1</i>
   <i type="int" name="KBLOCK">     1</i>
   <i type="int" name="NPACO">   256</i>
   <i name="APACO">     16.00000000</i>
  </separator>
  <separator name="symmetry" >
   <i type="int" name="ISYM">     2</i>
   <i name="SYMPREC">      0.00001000</i>
  </separator>
  <separator name="dos" >
   <i type="int" name="LORBIT">     0</i>
   <v name="RWIGS">     -1.00000000     -1.00000000</v>
   <i type="int" name="NEDOS">   301</i>
   <i name="EMIN">     10.00000000</i>
   <i name="EMAX">    -10.00000000</i>
   <i name="EFERMI">      0.00000000</i>
  </separator>
  <separator name="writing" >
   <i type="int" name="NWRITE">     2</i>
   <i type="logical" name="LWAVE"> T  </i>
   <i type="logical" name="LDOWNSAMPLE"> F  </i>
   <i type="logical" name="LCHARG"> T  </i>
   <i type="logical" name="LPARD"> F  </i>
   <i type="logical" name="LVTOT"> F  </i>
   <i type="logical" name="LVHAR"> F  </i>
   <i type="logical" name="LELF"> F  </i>
   <i type="logical" name="LOPTICS"> F  </i>
   <v name="STM">      0.00000000      0.00000000      0.00000000      0.00000000      0.00000000      0.00000000      0.00000000</v>
  </separator>
  <separator name="performance" >
   <i type="int" name="NPAR">     6</i>
   <i type="int" name="NSIM">     4</i>
   <i type="int" name="NBLK">    -1</i>
   <i type="logical" name="LPLANE"> T  </i>
   <i type="logical" name="LSCALAPACK"> T  </i>
   <i type="logical" name="LSCAAWARE"> F  </i>
   <i type="logical" name="LSCALU"> F  </i>
   <i type="logical" name="LASYNC"> F  </i>
   <i type="logical" name="LORBITALREAL"> F  </i>
  </separator>
  <separator name="miscellaneous" >
   <i type="int" name="IDIOT">     3</i>
   <i type="int" name="ISPECIAL">     0</i>
   <i type="logical" name="LMUSIC"> F  </i>
   <v name="POMASS">     12.01100000     16.00000000</v>
   <v name="DARWINR">      0.00000000      0.00000000</v>
   <v name="DARWINV">      1.00000000      1.00000000</v>
   <i type="logical" name="LCORR"> T  </i>
  </separator>
  <i type="logical" name="GGA_COMPAT"> T  </i>
  <i type="logical" name="LBERRY"> F  </i>
  <i type="int" name="ICORELEVEL">     0</i>
  <i type="logical" name="LDAU"> F  </i>
  <i type="int" name="I_CONSTRAINED_M">     0</i>
  <separator name="electronic exchange-correlation" >
   <i type="string" name="GGA">--</i>
   <i type="int" name="VOSKOWN">     0</i>
   <i type="logical" name="LHFCALC"> F  </i>
   <i type="string" name="PRECFOCK"></i>
   <i type="logical" name="LSYMGRAD"> F  </i>
   <i type="logical" name="LHFONE"> F  </i>
   <i type="logical" name="LRHFCALC"> F  </i>
   <i type="logical" name="LTHOMAS"> F  </i>
   <i type="logical" name="LMODELHF"> F  </i>
   <i name="ENCUT4O">     -1.00000000</i>
   <i type="int" name="EXXOEP">     0</i>
   <i type="int" name="FOURORBIT">     0</i>
   <i name="AEXX">      0.00000000</i>
   <i name="HFALPHA">      0.00000000</i>
   <i name="MCALPHA">      0.00000000</i>
   <i name="ALDAX">      1.00000000</i>
   <i name="AGGAX">      1.00000000</i>
   <i name="ALDAC">      1.00000000</i>
   <i name="AGGAC">      1.00000000</i>
   <i type="int" name="NKREDX">     1</i>
   <i type="int" name="NKREDY">     1</i>
   <i type="int" name="NKREDZ">     1</i>
   <i type="logical" name="SHIFTRED"> F  </i>
   <i type="logical" name="ODDONLY"> F  </i>
   <i type="logical" name="EVENONLY"> F  </i>
   <i type="int" name="LMAXFOCK">     0</i>
   <i type="int" name="NMAXFOCKAE">     0</i>
   <i type="logical" name="LFOCKAEDFT"> F  </i>
   <i name="HFSCREEN">      0.00000000</i>
   <i name="HFSCREENC">      0.00000000</i>
   <i type="int" name="NBANDSGWLOW">     0</i>
  </separator>
  <separator name="vdW DFT" >
   <i type="logical" name="LUSE_VDW"> F  </i>
   <i name="Zab_VDW">     -0.84910000</i>
   <i name="PARAM1">      0.12340000</i>
   <i name="PARAM2">      1.00000000</i>
   <i name="PARAM3">      0.00000000</i>
  </separator>
  <separator name="model GW" >
   <i type="int" name="MODEL_GW">     0</i>
   <i name="MODEL_EPS0">    300.00000000</i>
   <i name="MODEL_ALPHA">      1.00000000</i>
  </separator>
  <separator name="linear response parameters" >
   <i type="logical" name="LEPSILON"> F  </i>
   <i type="logical" name="LRPA"> F  </i>
   <i type="logical" name="LNABLA"> F  </i>
   <i type="logical" name="LVEL"> F  </i>
   <i type="int" name="KINTER">     0</i>
   <i name="CSHIFT">      0.10000000</i>
   <i name="OMEGAMAX">     -1.00000000</i>
   <i name="DEG_THRESHOLD">      0.00200000</i>
   <i name="RTIME">     -0.10000000</i>
   <i name="WPLASMAI">      0.00000000</i>
   <v name="DFIELD">      0.00000000      0.00000000      0.00000000</v>
   <v name="WPLASMA">      0.00000000      0.00000000      0.00000000      0.00000000      0.00000000      0.00000000      0.00000000      0.00000000      0.00000000</v>
  </separator>
  <separator name="orbital magnetization" >
   <i type="logical" name="NUCIND"> F  </i>
   <v name="MAGPOS">      0.00000000      0.00000000      0.00000000</v>
   <i type="logical" name="LNICSALL"> T  </i>
   <i type="logical" name="ORBITALMAG"> F  </i>
   <i type="logical" name="LMAGBLOCH"> F  </i>
   <i type="logical" name="LCHIMAG"> F  </i>
   <i type="logical" name="LGAUGE"> T  </i>
   <i type="int" name="MAGATOM">     0</i>
   <v name="MAGDIPOL">      0.00000000      0.00000000      0.00000000</v>
   <v name="AVECCONST">      0.00000000      0.00000000      0.00000000</v>
  </separator>
  <separator name="response functions" >
   <i type="logical" name="LADDER"> F  </i>
   <i type="logical" name="LRPAFORCE"> F  </i>
   <i type="logical" name="LFXC"> F  </i>
   <i type="logical" name="LHARTREE"> T  </i>
   <i type="int" name="IBSE">     0</i>
   <v type="int" name="KPOINT">    -1     0     0     0</v>
   <i type="logical" name="LTCTE"> F  </i>
   <i type="logical" name="LTETE"> F  </i>
   <i type="logical" name="LTRIPLET"> F  </i>
   <i type="logical" name="LFXCEPS"> F  </i>
   <i type="logical" name="LFXHEG"> F  </i>
   <i type="int" name="NATURALO">     2</i>
   <i type="logical" name="L2ORDER"> F  </i>
   <i type="logical" name="LMP2LT"> F  </i>
   <i type="logical" name="LUSEW"> F  </i>
   <i name="ENCUTGW">     -2.00000000</i>
   <i name="ENCUTGWSOFT">     -2.00000000</i>
   <i name="ENCUTLF">     -1.00000000</i>
   <i type="int" name="LMAXMP2">    -1</i>
   <i name="SCISSOR">      0.00000000</i>
   <i type="int" name="NOMEGA">     0</i>
   <i type="int" name="NOMEGAR">     0</i>
   <i type="int" name="NBANDSGW">    -1</i>
   <i type="int" name="NBANDSO">    -1</i>
   <i type="int" name="NBANDSV">    -1</i>
   <i type="int" name="NELM">     1</i>
   <i type="int" name="NELMHF">     1</i>
   <i type="int" name="DIM">     3</i>
   <i type="int" name="ANTIRES">     0</i>
   <i name="OMEGAMAX">    -30.00000000</i>
   <i name="OMEGAMIN">    -30.00000000</i>
   <i name="OMEGATL">   -200.00000000</i>
   <i type="int" name="OMEGAGRID">   140</i>
   <i name="CSHIFT">     -0.10000000</i>
   <i type="logical" name="SELFENERGY"> F  </i>
   <i type="logical" name="LSPECTRAL"> F  </i>
   <i type="logical" name="LSPECTRALGW"> F  </i>
   <i type="logical" name="LSINGLES"> F  </i>
   <i type="logical" name="LFERMIGW"> F  </i>
   <i type="logical" name="ODDONLYGW"> F  </i>
   <i type="logical" name="EVENONLYGW"> F  </i>
   <i type="int" name="NKREDLFX">     1</i>
   <i type="int" name="NKREDLFY">     1</i>
   <i type="int" name="NKREDLFZ">     1</i>
   <i type="int" name="MAXMEM">  2800</i>
   <i type="int" name="TELESCOPE">     0</i>
   <i type="int" name="TAUPAR">     1</i>
   <i type="int" name="OMEGAPAR">    -1</i>
   <i name="LAMBDA">      1.00000000</i>
  </separator>
  <separator name="External order field" >
   <i name="OFIELD_KAPPA">      0.00000000</i>
   <v name="OFIELD_K">      0.00000000      0.00000000      0.00000000</v>
   <i name="OFIELD_Q6_NEAR">      0.00000000</i>
   <i name="OFIELD_Q6_FAR">      0.00000000</i>
   <i name="OFIELD_A">      0.00000000</i>
  </separator>
 </parameters>
 <atominfo>
  <atoms>       2 </atoms>
  <types>       2 </types>
  <array name="atoms" >
   <dimension dim="1">ion</dimension>
   <field type="string">element</field>
   <field type="int">atomtype</field>
   <set>
    <rc><c>C </c><c>   1</c></rc>
    <rc><c>O </c><c>   2</c></rc>
   </set>
  </array>
  <array name="atomtypes" >
   <dimension dim="1">type</dimension>
   <field type="int">atomspertype</field>
   <field type="string">element</field>
   <field>mass</field>
   <field>valence</field>
   <field type="string">pseudopotential</field>
   <set>
    <rc><c>   1</c><c>C </c><c>     12.01100000</c><c>      4.00000000</c><c>  PAW_PBE C 08Apr2002                   </c></rc>
    <rc><c>   1</c><c>O </c><c>     16.00000000</c><c>      6.00000000</c><c>  PAW_PBE O 08Apr2002                   </c></rc>
   </set>
  </array>
 </atominfo>
 <structure name="initialpos" >
  <crystal>
   <varray name="basis" >
    <v>      10.00000000       0.00000000       0.00000000 </v>
    <v>       0.00000000      10.00000000       0.00000000 </v>
    <v>       0.00000000       0.00000000      10.00000000 </v>
   </varray>
   <i name="volume">   1000.00000000 </i>
   <varray name="rec_basis" >
    <v>       0.10000000       0.00000000       0.00000000 </v>
    <v>       0.00000000       0.10000000       0.00000000 </v>
    <v>       0.00000000       0.00000000       0.10000000 </v>
   </varray>
  </crystal>
  <varray name="positions" >
   <v>       0.00000000       0.00000000       0.99917918 </v>
   <v>       0.00000000       0.00000000       0.11365082 </v>
  </varray>
 </structure>
 <calculation>
  <scstep>
   <time name="dav">    0.85    0.85</time>
   <time name="total">    1.02    1.03</time>
   <energy>
    <i name="alphaZ">      0.43695755 </i>
    <i name="ewald">     98.58894300 </i>
    <i name="hartreedc">   -560.30936031 </i>
    <i name="XCdc">     39.19352022 </i>
    <i name="pawpsdc">    455.07152327 </i>
    <i name="pawaedc">   -457.43959975 </i>
    <i name="eentropy">     -0.01200041 </i>
    <i name="bandstr">   -100.58625557 </i>
    <i name="atom">    579.39041991 </i>
    <i name="e_fr_energy">     54.33414792 </i>
    <i name="e_wo_entrp">     54.34614833 </i>
    <i name="e_0_energy">     54.34014812 </i>
   </energy>
  </scstep>
  <scstep>
   <time name="dav">    0.97    0.97</time>
   <time name="total">    0.97    0.97</time>
   <energy>
    <i name="e_fr_energy">    -11.12126392 </i>
    <i name="e_wo_entrp">    -11.12126392 </i>
    <i name="e_0_energy">    -11.12126392 </i>
   </energy>
  </scstep>
  <scstep>
   <time name="dav">    1.05    1.05</time>
   <time name="total">    1.05    1.05</time>
   <energy>
    <i name="e_fr_energy">    -15.57896612 </i>
    <i name="e_wo_entrp">    -15.57896612 </i>
    <i name="e_0_energy">    -15.57896612 </i>
   </energy>
  </scstep>
  <scstep>
   <time name="dav">    0.72    0.73</time>
   <time name="total">    0.72    0.73</time>
   <energy>
    <i name="e_fr_energy">    -15.59092457 </i>
    <i name="e_wo_entrp">    -15.59092457 </i>
    <i name="e_0_energy">    -15.59092457 </i>
   </energy>
  </scstep>
  <scstep>
   <time name="dav">    0.83    0.85</time>
   <time name="total">    0.88    0.90</time>
   <energy>
    <i name="e_fr_energy">    -15.59100347 </i>
    <i name="e_wo_entrp">    -15.59100347 </i>
    <i name="e_0_energy">    -15.59100347 </i>
   </energy>
  </scstep>
  <scstep>
   <time name="dav">    0.68    0.69</time>
   <time name="total">    0.91    0.91</time>
   <energy>
    <i name="e_fr_energy">    -14.95799675 </i>
    <i name="e_wo_entrp">    -14.95799675 </i>
    <i name="e_0_energy">    -14.95799675 </i>
   </energy>
  </scstep>
  <scstep>
   <time name="dav">    0.76    0.77</time>
   <time name="total">    0.98    0.99</time>
   <energy>
    <i name="e_fr_energy">    -14.82878393 </i>
    <i name="e_wo_entrp">    -14.82878393 </i>
    <i name="e_0_energy">    -14.82878393 </i>
   </energy>
  </scstep>
  <scstep>
   <time name="dav">    0.77    0.77</time>
   <time name="total">    0.99    0.99</time>
   <energy>
    <i name="e_fr_energy">    -14.79353527 </i>
    <i name="e_wo_entrp">    -14.79353527 </i>
    <i name="e_0_energy">    -14.79353527 </i>
   </energy>
  </scstep>
  <scstep>
   <time name="dav">    0.80    0.81</time>
   <time name="total">    1.02    1.03</time>
   <energy>
    <i name="e_fr_energy">    -14.79292067 </i>
    <i name="e_wo_entrp">    -14.79292067 </i>
    <i name="e_0_energy">    -14.79292067 </i>
   </energy>
  </scstep>
  <scstep>
   <time name="dav">    0.75    0.77</time>
   <time name="total">    0.97    0.99</time>
   <energy>
    <i name="e_fr_energy">    -14.79363369 </i>
    <i name="e_wo_entrp">    -14.79363369 </i>
    <i name="e_0_energy">    -14.79363369 </i>
   </energy>
  </scstep>
  <scstep>
   <time name="dav">    0.68    0.68</time>
   <time name="total">    0.90    0.91</time>
   <energy>
    <i name="e_fr_energy">    -14.79541826 </i>
    <i name="e_wo_entrp">    -14.79541826 </i>
    <i name="e_0_energy">    -14.79541826 </i>
   </energy>
  </scstep>
  <scstep>
   <time name="dav">    0.92    0.93</time>
   <time name="total">    1.13    1.15</time>
   <energy>
    <i name="e_fr_energy">    -14.79615545 </i>
    <i name="e_wo_entrp">    -14.79615545 </i>
    <i name="e_0_energy">    -14.79615545 </i>
   </energy>
  </scstep>
  <scstep>
   <time name="dav">    0.80    0.81</time>
   <time name="total">    1.02    1.03</time>
   <energy>
    <i name="e_fr_energy">    -14.79715032 </i>
    <i name="e_wo_entrp">    -14.79715032 </i>
    <i name="e_0_energy">    -14.79715032 </i>
   </energy>
  </scstep>
  <scstep>
   <time name="dav">    0.77    0.77</time>
   <time name="total">    0.99    0.99</time>
   <energy>
    <i name="e_fr_energy">    -14.79747995 </i>
    <i name="e_wo_entrp">    -14.79747995 </i>
    <i name="e_0_energy">    -14.79747995 </i>
   </energy>
  </scstep>
  <scstep>
   <time name="dav">    0.85    0.85</time>
   <time name="total">    1.07    1.08</time>
   <energy>
    <i name="e_fr_energy">    -14.79764197 </i>
    <i name="e_wo_entrp">    -14.79764197 </i>
    <i name="e_0_energy">    -14.79764197 </i>
   </energy>
  </scstep>
  <scstep>
   <time name="dav">    0.80    0.82</time>
   <time name="total">    0.99    1.01</time>
   <energy>
    <i name="alphaZ">      0.43695755 </i>
    <i name="ewald">     98.58894300 </i>
    <i name="hartreedc">   -580.84964761 </i>
    <i name="XCdc">     40.39889027 </i>
    <i name="pawpsdc">    860.59906663 </i>
    <i name="pawaedc">   -863.05001157 </i>
    <i name="eentropy">     -0.00000000 </i>
    <i name="bandstr">   -150.31230665 </i>
    <i name="atom">    579.39041991 </i>
    <i name="e_fr_energy">    -14.79768847 </i>
    <i name="e_wo_entrp">    -14.79768847 </i>
    <i name="e_0_energy">    -14.79768847 </i>
   </energy>
  </scstep>
  <structure>
   <crystal>
    <varray name="basis" >
     <v>      10.00000000       0.00000000       0.00000000 </v>
     <v>       0.00000000      10.00000000       0.00000000 </v>
     <v>       0.00000000       0.00000000      10.00000000 </v>
    </varray>
    <i name="volume">   1000.00000000 </i>
    <varray name="rec_basis" >
     <v>       0.10000000       0.00000000       0.00000000 </v>
     <v>       0.00000000       0.10000000       0.00000000 </v>
     <v>       0.00000000       0.00000000       0.10000000 </v>
    </varray>
   </crystal>
   <varray name="positions" >
    <v>       0.00000000       0.00000000       0.99917918 </v>
    <v>       0.00000000       0.00000000       0.11365082 </v>
   </varray>
  </structure>
  <varray name="forces" >
   <v>       0.00000000       0.00000000       0.12521015 </v>
   <v>       0.00000000      -0.00000000      -0.12521015 </v>
  </varray>
  <varray name="stress" >
   <v>      -1.24587841      -0.00000000      -0.00000000 </v>
   <v>       0.00000000      -1.24587841       0.00000000 </v>
   <v>      -0.00000000       0.00000000      -1.42520178 </v>
  </varray>
  <energy>
   <i name="e_fr_energy">    -14.79768847 </i>
   <i name="e_wo_entrp">    -14.79768847 </i>
   <i name="e_0_energy">     -0.00000000 </i>
  </energy>
  <time name="totalsc">   17.34   17.56</time>
  <eigenvalues>
   <array>
    <dimension dim="1">band</dimension>
    <dimension dim="2">kpoint</dimension>
    <dimension dim="3">spin</dimension>
    <field>eigene</field>
    <field>occ</field>
    <set>
     <set comment="spin 1">
      <set comment="kpoint 1">
       <r>  -29.1124    1.0000 </r>
       <r>  -13.9174    1.0000 </r>
       <r>  -11.6036    1.0000 </r>
       <r>  -11.6036    1.0000 </r>
       <r>   -8.9171    1.0000 </r>
       <r>   -2.0258    0.0000 </r>
       <r>   -2.0258    0.0000 </r>
       <r>   -0.2045    0.0000 </r>
       <r>    1.0659    0.0000 </r>
       <r>    1.1851    0.0000 </r>
       <r>    1.1851    0.0000 </r>
       <r>    1.3113    0.0000 </r>
      </set>
      <set comment="kpoint 2">
       <r>  -29.1128    1.0000 </r>
       <r>  -13.9179    1.0000 </r>
       <r>  -11.6043    1.0000 </r>
       <r>  -11.6042    1.0000 </r>
       <r>   -8.9178    1.0000 </r>
       <r>   -2.0305    0.0000 </r>
       <r>   -2.0272    0.0000 </r>
       <r>    0.0874    0.0000 </r>
       <r>    0.2692    0.0000 </r>
       <r>    1.2607    0.0000 </r>
       <r>    1.3911    0.0000 </r>
       <r>    1.6348    0.0000 </r>
      </set>
      <set comment="kpoint 3">
       <r>  -29.1127    1.0000 </r>
       <r>  -13.9179    1.0000 </r>
       <r>  -11.6039    1.0000 </r>
       <r>  -11.6039    1.0000 </r>
       <r>   -8.9177    1.0000 </r>
       <r>   -2.0303    0.0000 </r>
       <r>   -2.0303    0.0000 </r>
       <r>    0.3656    0.0000 </r>
       <r>    0.5748    0.0000 </r>
       <r>    0.5748    0.0000 </r>
       <r>    0.6967    0.0000 </r>
       <r>    1.4141    0.0000 </r>
      </set>
      <set comment="kpoint 4">
       <r>  -29.1128    1.0000 </r>
       <r>  -13.9180    1.0000 </r>
       <r>  -11.6042    1.0000 </r>
       <r>  -11.6042    1.0000 </r>
       <r>   -8.9179    1.0000 </r>
       <r>   -2.0281    0.0000 </r>
       <r>   -2.0281    0.0000 </r>
       <r>    0.0351    0.0000 </r>
       <r>    0.2620    0.0000 </r>
       <r>    1.3876    0.0000 </r>
       <r>    1.3876    0.0000 </r>
       <r>    1.5304    0.0000 </r>
      </set>
      <set comment="kpoint 5">
       <r>  -29.1128    1.0000 </r>
       <r>  -13.9179    1.0000 </r>
       <r>  -11.6044    1.0000 </r>
       <r>  -11.6042    1.0000 </r>
       <r>   -8.9177    1.0000 </r>
       <r>   -2.0306    0.0000 </r>
       <r>   -2.0278    0.0000 </r>
       <r>    0.3000    0.0000 </r>
       <r>    0.5415    0.0000 </r>
       <r>    0.5417    0.0000 </r>
       <r>    0.7713    0.0000 </r>
       <r>    1.5642    0.0000 </r>
      </set>
      <set comment="kpoint 6">
       <r>  -29.1124    1.0000 </r>
       <r>  -13.9175    1.0000 </r>
       <r>  -11.6033    1.0000 </r>
       <r>  -11.6033    1.0000 </r>
       <r>   -8.9172    1.0000 </r>
       <r>   -2.0298    0.0000 </r>
       <r>   -2.0298    0.0000 </r>
       <r>    0.5456    0.0000 </r>
       <r>    0.8089    0.0000 </r>
       <r>    0.8089    0.0000 </r>
       <r>    1.0151    0.0000 </r>
       <r>    1.1352    0.0000 </r>
      </set>
     </set>
    </set>
   </array>
  </eigenvalues>
  <separator name="orbital magnetization" >
   <v name="MAGDIPOLOUT">      0.00000000      0.00000000      0.00000000</v>
  </separator>
  <dos>
   <i name="efermi">     -8.65158660 </i>
   <total>
    <array>
     <dimension dim="1">gridpoints</dimension>
     <dimension dim="2">spin</dimension>
     <field>energy</field>
     <field>total</field>
     <field>integrated</field>
     <set>
      <set comment="spin 1">
       <r>   -30.6502     0.0000     0.0000 </r>
       <r>   -30.5375     0.0000     0.0000 </r>
       <r>   -30.4247     0.0000     0.0000 </r>
       <r>   -30.3120     0.0000     0.0000 </r>
       <r>   -30.1993     0.0000     0.0000 </r>
       <r>   -30.0865     0.0000     0.0000 </r>
       <r>   -29.9738     0.0000     0.0000 </r>
       <r>   -29.8610     0.0000     0.0000 </r>
       <r>   -29.7483     0.0000     0.0000 </r>
       <r>   -29.6356     0.0000     0.0000 </r>
       <r>   -29.5228     0.0000     0.0000 </r>
       <r>   -29.4101     0.0000     0.0000 </r>
       <r>   -29.2973     0.0000     0.0000 </r>
       <r>   -29.1846     0.3730     0.0421 </r>
       <r>   -29.0718    15.1689     1.7522 </r>
       <r>   -28.9591     2.1977     2.0000 </r>
       <r>   -28.8464     0.0001     2.0000 </r>
       <r>   -28.7336     0.0000     2.0000 </r>
       <r>   -28.6209     0.0000     2.0000 </r>
       <r>   -28.5081     0.0000     2.0000 </r>
       <r>   -28.3954     0.0000     2.0000 </r>
       <r>   -28.2827     0.0000     2.0000 </r>
       <r>   -28.1699     0.0000     2.0000 </r>
       <r>   -28.0572     0.0000     2.0000 </r>
       <r>   -27.9444     0.0000     2.0000 </r>
       <r>   -27.8317     0.0000     2.0000 </r>
       <r>   -27.7190     0.0000     2.0000 </r>
       <r>   -27.6062     0.0000     2.0000 </r>
       <r>   -27.4935     0.0000     2.0000 </r>
       <r>   -27.3807     0.0000     2.0000 </r>
       <r>   -27.2680     0.0000     2.0000 </r>
       <r>   -27.1552     0.0000     2.0000 </r>
       <r>   -27.0425     0.0000     2.0000 </r>
       <r>   -26.9298     0.0000     2.0000 </r>
       <r>   -26.8170     0.0000     2.0000 </r>
       <r>   -26.7043     0.0000     2.0000 </r>
       <r>   -26.5915     0.0000     2.0000 </r>
       <r>   -26.4788     0.0000     2.0000 </r>
       <r>   -26.3661     0.0000     2.0000 </r>
       <r>   -26.2533     0.0000     2.0000 </r>
       <r>   -26.1406     0.0000     2.0000 </r>
       <r>   -26.0278     0.0000     2.0000 </r>
       <r>   -25.9151     0.0000     2.0000 </r>
       <r>   -25.8023     0.0000     2.0000 </r>
       <r>   -25.6896     0.0000     2.0000 </r>
       <r>   -25.5769     0.0000     2.0000 </r>
       <r>   -25.4641     0.0000     2.0000 </r>
       <r>   -25.3514     0.0000     2.0000 </r>
       <r>   -25.2386     0.0000     2.0000 </r>
       <r>   -25.1259     0.0000     2.0000 </r>
       <r>   -25.0132     0.0000     2.0000 </r>
       <r>   -24.9004     0.0000     2.0000 </r>
       <r>   -24.7877     0.0000     2.0000 </r>
       <r>   -24.6749     0.0000     2.0000 </r>
       <r>   -24.5622     0.0000     2.0000 </r>
       <r>   -24.4495     0.0000     2.0000 </r>
       <r>   -24.3367     0.0000     2.0000 </r>
       <r>   -24.2240     0.0000     2.0000 </r>
       <r>   -24.1112     0.0000     2.0000 </r>
       <r>   -23.9985     0.0000     2.0000 </r>
       <r>   -23.8857     0.0000     2.0000 </r>
       <r>   -23.7730     0.0000     2.0000 </r>
       <r>   -23.6603     0.0000     2.0000 </r>
       <r>   -23.5475     0.0000     2.0000 </r>
       <r>   -23.4348     0.0000     2.0000 </r>
       <r>   -23.3220     0.0000     2.0000 </r>
       <r>   -23.2093     0.0000     2.0000 </r>
       <r>   -23.0966     0.0000     2.0000 </r>
       <r>   -22.9838     0.0000     2.0000 </r>
       <r>   -22.8711     0.0000     2.0000 </r>
       <r>   -22.7583     0.0000     2.0000 </r>
       <r>   -22.6456     0.0000     2.0000 </r>
       <r>   -22.5329     0.0000     2.0000 </r>
       <r>   -22.4201     0.0000     2.0000 </r>
       <r>   -22.3074     0.0000     2.0000 </r>
       <r>   -22.1946     0.0000     2.0000 </r>
       <r>   -22.0819     0.0000     2.0000 </r>
       <r>   -21.9691     0.0000     2.0000 </r>
       <r>   -21.8564     0.0000     2.0000 </r>
       <r>   -21.7437     0.0000     2.0000 </r>
       <r>   -21.6309     0.0000     2.0000 </r>
       <r>   -21.5182     0.0000     2.0000 </r>
       <r>   -21.4054     0.0000     2.0000 </r>
       <r>   -21.2927     0.0000     2.0000 </r>
       <r>   -21.1800     0.0000     2.0000 </r>
       <r>   -21.0672     0.0000     2.0000 </r>
       <r>   -20.9545     0.0000     2.0000 </r>
       <r>   -20.8417     0.0000     2.0000 </r>
       <r>   -20.7290     0.0000     2.0000 </r>
       <r>   -20.6163     0.0000     2.0000 </r>
       <r>   -20.5035     0.0000     2.0000 </r>
       <r>   -20.3908     0.0000     2.0000 </r>
       <r>   -20.2780     0.0000     2.0000 </r>
       <r>   -20.1653     0.0000     2.0000 </r>
       <r>   -20.0525     0.0000     2.0000 </r>
       <r>   -19.9398     0.0000     2.0000 </r>
       <r>   -19.8271     0.0000     2.0000 </r>
       <r>   -19.7143     0.0000     2.0000 </r>
       <r>   -19.6016     0.0000     2.0000 </r>
       <r>   -19.4888     0.0000     2.0000 </r>
       <r>   -19.3761     0.0000     2.0000 </r>
       <r>   -19.2634     0.0000     2.0000 </r>
       <r>   -19.1506     0.0000     2.0000 </r>
       <r>   -19.0379     0.0000     2.0000 </r>
       <r>   -18.9251     0.0000     2.0000 </r>
       <r>   -18.8124     0.0000     2.0000 </r>
       <r>   -18.6997     0.0000     2.0000 </r>
       <r>   -18.5869     0.0000     2.0000 </r>
       <r>   -18.4742     0.0000     2.0000 </r>
       <r>   -18.3614     0.0000     2.0000 </r>
       <r>   -18.2487     0.0000     2.0000 </r>
       <r>   -18.1359     0.0000     2.0000 </r>
       <r>   -18.0232     0.0000     2.0000 </r>
       <r>   -17.9105     0.0000     2.0000 </r>
       <r>   -17.7977     0.0000     2.0000 </r>
       <r>   -17.6850     0.0000     2.0000 </r>
       <r>   -17.5722     0.0000     2.0000 </r>
       <r>   -17.4595     0.0000     2.0000 </r>
       <r>   -17.3468     0.0000     2.0000 </r>
       <r>   -17.2340     0.0000     2.0000 </r>
       <r>   -17.1213     0.0000     2.0000 </r>
       <r>   -17.0085     0.0000     2.0000 </r>
       <r>   -16.8958     0.0000     2.0000 </r>
       <r>   -16.7830     0.0000     2.0000 </r>
       <r>   -16.6703     0.0000     2.0000 </r>
       <r>   -16.5576     0.0000     2.0000 </r>
       <r>   -16.4448     0.0000     2.0000 </r>
       <r>   -16.3321     0.0000     2.0000 </r>
       <r>   -16.2193     0.0000     2.0000 </r>
       <r>   -16.1066     0.0000     2.0000 </r>
       <r>   -15.9939     0.0000     2.0000 </r>
       <r>   -15.8811     0.0000     2.0000 </r>
       <r>   -15.7684     0.0000     2.0000 </r>
       <r>   -15.6556     0.0000     2.0000 </r>
       <r>   -15.5429     0.0000     2.0000 </r>
       <r>   -15.4302     0.0000     2.0000 </r>
       <r>   -15.3174     0.0000     2.0000 </r>
       <r>   -15.2047     0.0000     2.0000 </r>
       <r>   -15.0919     0.0000     2.0000 </r>
       <r>   -14.9792     0.0000     2.0000 </r>
       <r>   -14.8664     0.0000     2.0000 </r>
       <r>   -14.7537     0.0000     2.0000 </r>
       <r>   -14.6410     0.0000     2.0000 </r>
       <r>   -14.5282     0.0000     2.0000 </r>
       <r>   -14.4155     0.0000     2.0000 </r>
       <r>   -14.3027     0.0000     2.0000 </r>
       <r>   -14.1900     0.0000     2.0000 </r>
       <r>   -14.0773     0.0001     2.0000 </r>
       <r>   -13.9645     1.6544     2.1865 </r>
       <r>   -13.8518    15.5372     3.9382 </r>
       <r>   -13.7390     0.5480     4.0000 </r>
       <r>   -13.6263     0.0000     4.0000 </r>
       <r>   -13.5136     0.0000     4.0000 </r>
       <r>   -13.4008     0.0000     4.0000 </r>
       <r>   -13.2881     0.0000     4.0000 </r>
       <r>   -13.1753     0.0000     4.0000 </r>
       <r>   -13.0626     0.0000     4.0000 </r>
       <r>   -12.9498     0.0000     4.0000 </r>
       <r>   -12.8371     0.0000     4.0000 </r>
       <r>   -12.7244     0.0000     4.0000 </r>
       <r>   -12.6116     0.0000     4.0000 </r>
       <r>   -12.4989     0.0000     4.0000 </r>
       <r>   -12.3861     0.0000     4.0000 </r>
       <r>   -12.2734     0.0000     4.0000 </r>
       <r>   -12.1607     0.0000     4.0000 </r>
       <r>   -12.0479     0.0000     4.0000 </r>
       <r>   -11.9352     0.0000     4.0000 </r>
       <r>   -11.8224     0.0000     4.0000 </r>
       <r>   -11.7097     0.0496     4.0056 </r>
       <r>   -11.5970    20.4945     6.3162 </r>
       <r>   -11.4842    14.9229     7.9986 </r>
       <r>   -11.3715     0.0125     8.0000 </r>
       <r>   -11.2587     0.0000     8.0000 </r>
       <r>   -11.1460     0.0000     8.0000 </r>
       <r>   -11.0332     0.0000     8.0000 </r>
       <r>   -10.9205     0.0000     8.0000 </r>
       <r>   -10.8078     0.0000     8.0000 </r>
       <r>   -10.6950     0.0000     8.0000 </r>
       <r>   -10.5823     0.0000     8.0000 </r>
       <r>   -10.4695     0.0000     8.0000 </r>
       <r>   -10.3568     0.0000     8.0000 </r>
       <r>   -10.2441     0.0000     8.0000 </r>
       <r>   -10.1313     0.0000     8.0000 </r>
       <r>   -10.0186     0.0000     8.0000 </r>
       <r>    -9.9058     0.0000     8.0000 </r>
       <r>    -9.7931     0.0000     8.0000 </r>
       <r>    -9.6804     0.0000     8.0000 </r>
       <r>    -9.5676     0.0000     8.0000 </r>
       <r>    -9.4549     0.0000     8.0000 </r>
       <r>    -9.3421     0.0000     8.0000 </r>
       <r>    -9.2294     0.0000     8.0000 </r>
       <r>    -9.1166     0.0000     8.0000 </r>
       <r>    -9.0039     0.1302     8.0147 </r>
       <r>    -8.8912    13.5806     9.5458 </r>
       <r>    -8.7784     4.0282     9.9999 </r>
       <r>    -8.6657     0.0007    10.0000 </r>
       <r>    -8.5529     0.0000    10.0000 </r>
       <r>    -8.4402     0.0000    10.0000 </r>
       <r>    -8.3275     0.0000    10.0000 </r>
       <r>    -8.2147     0.0000    10.0000 </r>
       <r>    -8.1020     0.0000    10.0000 </r>
       <r>    -7.9892     0.0000    10.0000 </r>
       <r>    -7.8765     0.0000    10.0000 </r>
       <r>    -7.7637     0.0000    10.0000 </r>
       <r>    -7.6510     0.0000    10.0000 </r>
       <r>    -7.5383     0.0000    10.0000 </r>
       <r>    -7.4255     0.0000    10.0000 </r>
       <r>    -7.3128     0.0000    10.0000 </r>
       <r>    -7.2000     0.0000    10.0000 </r>
       <r>    -7.0873     0.0000    10.0000 </r>
       <r>    -6.9746     0.0000    10.0000 </r>
       <r>    -6.8618     0.0000    10.0000 </r>
       <r>    -6.7491     0.0000    10.0000 </r>
       <r>    -6.6363     0.0000    10.0000 </r>
       <r>    -6.5236     0.0000    10.0000 </r>
       <r>    -6.4109     0.0000    10.0000 </r>
       <r>    -6.2981     0.0000    10.0000 </r>
       <r>    -6.1854     0.0000    10.0000 </r>
       <r>    -6.0726     0.0000    10.0000 </r>
       <r>    -5.9599     0.0000    10.0000 </r>
       <r>    -5.8471     0.0000    10.0000 </r>
       <r>    -5.7344     0.0000    10.0000 </r>
       <r>    -5.6217     0.0000    10.0000 </r>
       <r>    -5.5089     0.0000    10.0000 </r>
       <r>    -5.3962     0.0000    10.0000 </r>
       <r>    -5.2834     0.0000    10.0000 </r>
       <r>    -5.1707     0.0000    10.0000 </r>
       <r>    -5.0580     0.0000    10.0000 </r>
       <r>    -4.9452     0.0000    10.0000 </r>
       <r>    -4.8325     0.0000    10.0000 </r>
       <r>    -4.7197     0.0000    10.0000 </r>
       <r>    -4.6070     0.0000    10.0000 </r>
       <r>    -4.4943     0.0000    10.0000 </r>
       <r>    -4.3815     0.0000    10.0000 </r>
       <r>    -4.2688     0.0000    10.0000 </r>
       <r>    -4.1560     0.0000    10.0000 </r>
       <r>    -4.0433     0.0000    10.0000 </r>
       <r>    -3.9305     0.0000    10.0000 </r>
       <r>    -3.8178     0.0000    10.0000 </r>
       <r>    -3.7051     0.0000    10.0000 </r>
       <r>    -3.5923     0.0000    10.0000 </r>
       <r>    -3.4796     0.0000    10.0000 </r>
       <r>    -3.3668     0.0000    10.0000 </r>
       <r>    -3.2541     0.0000    10.0000 </r>
       <r>    -3.1414     0.0000    10.0000 </r>
       <r>    -3.0286     0.0000    10.0000 </r>
       <r>    -2.9159     0.0000    10.0000 </r>
       <r>    -2.8031     0.0000    10.0000 </r>
       <r>    -2.6904     0.0000    10.0000 </r>
       <r>    -2.5777     0.0000    10.0000 </r>
       <r>    -2.4649     0.0000    10.0000 </r>
       <r>    -2.3522     0.0000    10.0000 </r>
       <r>    -2.2394     0.0000    10.0000 </r>
       <r>    -2.1267     0.1005    10.0113 </r>
       <r>    -2.0139    23.3959    12.6490 </r>
       <r>    -1.9012    11.9776    13.9994 </r>
       <r>    -1.7885     0.0056    14.0000 </r>
       <r>    -1.6757     0.0000    14.0000 </r>
       <r>    -1.5630     0.0000    14.0000 </r>
       <r>    -1.4502     0.0000    14.0000 </r>
       <r>    -1.3375     0.0000    14.0000 </r>
       <r>    -1.2248     0.0000    14.0000 </r>
       <r>    -1.1120     0.0000    14.0000 </r>
       <r>    -0.9993     0.0000    14.0000 </r>
       <r>    -0.8865     0.0000    14.0000 </r>
       <r>    -0.7738     0.0000    14.0000 </r>
       <r>    -0.6611     0.0000    14.0000 </r>
       <r>    -0.5483     0.0000    14.0000 </r>
       <r>    -0.4356     0.0000    14.0000 </r>
       <r>    -0.3228     0.0009    14.0001 </r>
       <r>    -0.2101     0.9678    14.1092 </r>
       <r>    -0.0973     1.2462    14.2497 </r>
       <r>     0.0154     0.7353    14.3326 </r>
       <r>     0.1281     5.3582    14.9367 </r>
       <r>     0.2409     2.3210    15.1984 </r>
       <r>     0.3536     9.8079    16.3041 </r>
       <r>     0.4664     1.9132    16.5198 </r>
       <r>     0.5791    11.6845    17.8372 </r>
       <r>     0.6918     4.7047    18.3676 </r>
       <r>     0.8046     6.8412    19.1389 </r>
       <r>     0.9173     3.2047    19.5002 </r>
       <r>     1.0301     1.8200    19.7054 </r>
       <r>     1.1428     4.3943    20.2008 </r>
       <r>     1.2556     6.8594    20.9741 </r>
       <r>     1.3683     7.2062    21.7865 </r>
       <r>     1.4810     8.6601    22.7629 </r>
       <r>     1.5938     6.1080    23.4515 </r>
       <r>     1.7065     4.7706    23.9894 </r>
       <r>     1.8193     0.0942    24.0000 </r>
       <r>     1.9320     0.0000    24.0000 </r>
       <r>     2.0447     0.0000    24.0000 </r>
       <r>     2.1575     0.0000    24.0000 </r>
       <r>     2.2702     0.0000    24.0000 </r>
       <r>     2.3830     0.0000    24.0000 </r>
       <r>     2.4957     0.0000    24.0000 </r>
       <r>     2.6084     0.0000    24.0000 </r>
       <r>     2.7212     0.0000    24.0000 </r>
       <r>     2.8339     0.0000    24.0000 </r>
       <r>     2.9467     0.0000    24.0000 </r>
       <r>     3.0594     0.0000    24.0000 </r>
       <r>     3.1722     0.0000    24.0000 </r>
      </set>
     </set>
    </array>
   </total>
  </dos>
 </calculation>
 <structure name="finalpos" >
  <crystal>
   <varray name="basis" >
    <v>      10.00000000       0.00000000       0.00000000 </v>
    <v>       0.00000000      10.00000000       0.00000000 </v>
    <v>       0.00000000       0.00000000      10.00000000 </v>
   </varray>
   <i name="volume">   1000.00000000 </i>
   <varray name="rec_basis" >
    <v>       0.10000000       0.00000000       0.00000000 </v>
    <v>       0.00000000       0.10000000       0.00000000 </v>
    <v>       0.00000000       0.00000000       0.10000000 </v>
   </varray>
  </crystal>
  <varray name="positions" >
   <v>       0.00000000       0.00000000       0.99917918 </v>
   <v>       0.00000000       0.00000000       0.11365082 </v>
  </varray>
 </structure>
</modeling>
