unknown system                          
           1
     5.237364    0.000000    0.000000
    -2.618681    4.535691    0.000000
     0.000000    0.000000   19.915559
   Zn   Ni   Ag
  12   4   4
Direct configuration=     1
   0.33333300  0.16666700  0.00000000
   0.33333300  0.66666700  0.00000000
   0.83333300  0.16666700  0.00000000
   0.83333300  0.66666700  0.00000000
   0.16666700  0.33333300  0.13033206
   0.16666700  0.83333300  0.13033206
   0.66666700  0.33333300  0.13033206
   0.66666700  0.83333300  0.13033206
   0.33332900  0.66668900  0.25217565
   0.33337600  0.16666500  0.25217667
   0.83329600  0.16668300  0.25217667
   0.83332800  0.66662900  0.25217667
   0.66667100  0.33333800  0.37323015
   0.66669900  0.83335000  0.37323220
   0.16664300  0.83334500  0.37323220
   0.16664500  0.33330300  0.37323322
   0.83335900  0.66668700  0.49787901
   0.83334200  0.16666700  0.49787901
   0.33330700  0.16664300  0.49788003
   0.33331500  0.66667200  0.49788003
Direct configuration=     2
   0.33333300  0.16666700  0.00000000
   0.33333300  0.66666700  0.00000000
   0.83333300  0.16666700  0.00000000
   0.83333300  0.66666700  0.00000000
   0.16666700  0.33333300  0.13033206
   0.16666700  0.83333300  0.13033206
   0.66666700  0.33333300  0.13033206
   0.66666700  0.83333300  0.13033206
   0.33333116  0.66667563  0.25417697
   0.33335032  0.16666639  0.25417807
   0.83331741  0.16667291  0.25417819
   0.83333023  0.66665098  0.25417801
   0.66666920  0.33333715  0.37223652
   0.66669021  0.83334559  0.37223811
   0.16664843  0.83334233  0.37223801
   0.16665034  0.33331093  0.37223888
   0.83331728  0.66665762  0.49682569
   0.83332478  0.16666704  0.49682579
   0.33334219  0.16667884  0.49682679
   0.33333858  0.66666550  0.49682640
Direct configuration=     3
   0.33333300  0.16666700  0.00000000
   0.33333300  0.66666700  0.00000000
   0.83333300  0.16666700  0.00000000
   0.83333300  0.66666700  0.00000000
   0.16666700  0.33333300  0.13033206
   0.16666700  0.83333300  0.13033206
   0.66666700  0.33333300  0.13033206
   0.66666700  0.83333300  0.13033206
   0.33333764  0.66663550  0.26018094
   0.33327329  0.16667055  0.26018227
   0.83338166  0.16664264  0.26018276
   0.83333692  0.66671693  0.26018201
   0.66666378  0.33333459  0.36925563
   0.66666383  0.83333237  0.36925583
   0.16666470  0.83333433  0.36925544
   0.16666638  0.33333473  0.36925584
   0.83319210  0.66656950  0.49366575
   0.83327313  0.16666718  0.49366615
   0.33344777  0.16678635  0.49366707
   0.33340934  0.66664600  0.49366552
Direct configuration=     4
   0.33333300  0.16666700  0.00000000
   0.33333300  0.66666700  0.00000000
   0.83333300  0.16666700  0.00000000
   0.83333300  0.66666700  0.00000000
   0.16666700  0.33333300  0.13033206
   0.16666700  0.83333300  0.13033206
   0.66666700  0.33333300  0.13033206
   0.66666700  0.83333300  0.13033206
   0.33335059  0.66655526  0.27218888
   0.33311923  0.16667887  0.27219067
   0.83351014  0.16658209  0.27219189
   0.83335030  0.66684884  0.27219002
   0.66665296  0.33332948  0.36329385
   0.66661108  0.83330592  0.36329127
   0.16669726  0.83331832  0.36329029
   0.16669844  0.33338233  0.36328976
   0.83294176  0.66639324  0.48734586
   0.83316983  0.16666745  0.48734687
   0.33365892  0.16700137  0.48734763
   0.33355085  0.66660700  0.48734375
Direct configuration=     5
   0.33333300  0.16666700  0.00000000
   0.33333300  0.66666700  0.00000000
   0.83333300  0.16666700  0.00000000
   0.83333300  0.66666700  0.00000000
   0.16666700  0.33333300  0.13033206
   0.16666700  0.83333300  0.13033206
   0.66666700  0.33333300  0.13033206
   0.66666700  0.83333300  0.13033206
   0.33334062  0.66661703  0.26294492
   0.33323783  0.16667246  0.26294635
   0.83341123  0.16662870  0.26294701
   0.83334000  0.66674730  0.26294600
   0.66666129  0.33333341  0.36788336
   0.66665169  0.83332628  0.36788291
   0.16667220  0.83333064  0.36788238
   0.16667376  0.33334569  0.36788257
   0.83313448  0.66652893  0.49221104
   0.83324935  0.16666724  0.49221159
   0.33349637  0.16683584  0.49221247
   0.33344191  0.66663702  0.49221038
Direct configuration=     6
   0.33333300  0.16666700  0.00000000
   0.33333300  0.66666700  0.00000000
   0.83333300  0.16666700  0.00000000
   0.83333300  0.66666700  0.00000000
   0.16666700  0.33333300  0.13033206
   0.16666700  0.83333300  0.13033206
   0.66666700  0.33333300  0.13033206
   0.66666700  0.83333300  0.13033206
   0.33334256  0.66660500  0.26474530
   0.33321473  0.16667371  0.26474680
   0.83343050  0.16661962  0.26474757
   0.83334201  0.66676707  0.26474640
   0.66665967  0.33333265  0.36698949
   0.66664378  0.83332232  0.36698863
   0.16667708  0.83332824  0.36698801
   0.16667856  0.33335283  0.36698806
   0.83309695  0.66650250  0.49126348
   0.83323386  0.16666728  0.49126412
   0.33352803  0.16686808  0.49126498
   0.33346313  0.66663117  0.49126254
Direct configuration=     7
   0.33333300  0.16666700  0.00000000
   0.33333300  0.66666700  0.00000000
   0.83333300  0.16666700  0.00000000
   0.83333300  0.66666700  0.00000000
   0.16666700  0.33333300  0.13033206
   0.16666700  0.83333300  0.13033206
   0.66666700  0.33333300  0.13033206
   0.66666700  0.83333300  0.13033206
   0.33333158  0.66667830  0.26498744
   0.33335681  0.16666600  0.26499020
   0.83331247  0.16667536  0.26499131
   0.83332901  0.66664572  0.26499043
   0.66666617  0.33332866  0.36759994
   0.66665224  0.83333362  0.36760751
   0.16667452  0.83332845  0.36761207
   0.16666669  0.33334553  0.36762129
   0.83380032  0.66700124  0.48910263
   0.83352707  0.16666659  0.48910302
   0.33293124  0.16626247  0.48910451
   0.33306302  0.66673865  0.48910173
Direct configuration=     8
   0.33333300  0.16666700  0.00000000
   0.33333300  0.66666700  0.00000000
   0.83333300  0.16666700  0.00000000
   0.83333300  0.66666700  0.00000000
   0.16666700  0.33333300  0.13033206
   0.16666700  0.83333300  0.13033206
   0.66666700  0.33333300  0.13033206
   0.66666700  0.83333300  0.13033206
   0.33331010  0.66682176  0.26546133
   0.33363488  0.16665091  0.26546657
   0.83308149  0.16678446  0.26546834
   0.83330357  0.66640820  0.26546803
   0.66667889  0.33332087  0.36879468
   0.66666879  0.83335574  0.36881874
   0.16666950  0.83332886  0.36883342
   0.16664346  0.33333126  0.36886061
   0.83517690  0.66797732  0.48487357
   0.83410091  0.16666524  0.48487349
   0.33176324  0.16507722  0.48487621
   0.33227994  0.66694898  0.48487276
Direct configuration=     9
   0.33333300  0.16666700  0.00000000
   0.33333300  0.66666700  0.00000000
   0.83333300  0.16666700  0.00000000
   0.83333300  0.66666700  0.00000000
   0.16666700  0.33333300  0.13033206
   0.16666700  0.83333300  0.13033206
   0.66666700  0.33333300  0.13033206
   0.66666700  0.83333300  0.13033206
   0.33331388  0.66679652  0.26537797
   0.33358597  0.16665357  0.26538277
   0.83312213  0.16676527  0.26538442
   0.83330805  0.66644999  0.26538401
   0.66667665  0.33332224  0.36858451
   0.66666588  0.83335185  0.36860566
   0.16667038  0.83332879  0.36861856
   0.16664755  0.33333377  0.36864259
   0.83493474  0.66780561  0.48561753
   0.83399996  0.16666547  0.48561753
   0.33196871  0.16528572  0.48562003
   0.33241770  0.66691198  0.48561670
Direct configuration=    10
   0.33333300  0.16666700  0.00000000
   0.33333300  0.66666700  0.00000000
   0.83333300  0.16666700  0.00000000
   0.83333300  0.66666700  0.00000000
   0.16666700  0.33333300  0.13033206
   0.16666700  0.83333300  0.13033206
   0.66666700  0.33333300  0.13033206
   0.66666700  0.83333300  0.13033206
   0.33332034  0.66659345  0.26492437
   0.33319021  0.16666178  0.26492521
   0.83345497  0.16662985  0.26492257
   0.83336594  0.66678048  0.26492054
   0.66662583  0.33334969  0.36816952
   0.66662945  0.83328094  0.36810370
   0.16668077  0.83334347  0.36801490
   0.16672742  0.33336293  0.36807653
   0.82855961  0.66327688  0.48414360
   0.83131358  0.16666768  0.48414870
   0.33738624  0.17076990  0.48415043
   0.33605435  0.66595354  0.48414996
Direct configuration=    11
   0.33333300  0.16666700  0.00000000
   0.33333300  0.66666700  0.00000000
   0.83333300  0.16666700  0.00000000
   0.83333300  0.66666700  0.00000000
   0.16666700  0.33333300  0.13033206
   0.16666700  0.83333300  0.13033206
   0.66666700  0.33333300  0.13033206
   0.66666700  0.83333300  0.13033206
   0.33331680  0.66670460  0.26517264
   0.33340682  0.16665729  0.26517565
   0.83327279  0.16670397  0.26517535
   0.83333425  0.66659959  0.26517421
   0.66665364  0.33333467  0.36839665
   0.66664939  0.83331975  0.36837844
   0.16667508  0.83333543  0.36834530
   0.16668370  0.33334697  0.36838635
   0.83204891  0.66575559  0.48495033
   0.83278391  0.16666647  0.48495263
   0.33442107  0.16776825  0.48495479
   0.33406390  0.66647812  0.48495275
Direct configuration=    12
   0.33333300  0.16666700  0.00000000
   0.33333300  0.66666700  0.00000000
   0.83333300  0.16666700  0.00000000
   0.83333300  0.66666700  0.00000000
   0.16666700  0.33333300  0.13033206
   0.16666700  0.83333300  0.13033206
   0.66666700  0.33333300  0.13033206
   0.66666700  0.83333300  0.13033206
   0.33334822  0.66653337  0.26441168
   0.33310249  0.16669648  0.26441300
   0.83353955  0.16658365  0.26441536
   0.83334364  0.66685488  0.26440866
   0.66662439  0.33336454  0.36748546
   0.66666181  0.83328166  0.36744623
   0.16665703  0.83335279  0.36746407
   0.16671253  0.33333185  0.36743688
   0.83207681  0.66578383  0.48379767
   0.83279751  0.16666367  0.48380502
   0.33438923  0.16774515  0.48380641
   0.33404957  0.66647754  0.48380374
Direct configuration=    13
   0.33333300  0.16666700  0.00000000
   0.33333300  0.66666700  0.00000000
   0.83333300  0.16666700  0.00000000
   0.83333300  0.66666700  0.00000000
   0.16666700  0.33333300  0.13033206
   0.16666700  0.83333300  0.13033206
   0.66666700  0.33333300  0.13033206
   0.66666700  0.83333300  0.13033206
   0.33344248  0.66601968  0.26212881
   0.33218948  0.16681408  0.26212508
   0.83433983  0.16622271  0.26213539
   0.83337180  0.66762073  0.26211199
   0.66653661  0.33345414  0.36475186
   0.66669909  0.83316738  0.36464959
   0.16660287  0.83340487  0.36482039
   0.16679900  0.33328651  0.36458845
   0.83216054  0.66586854  0.48033969
   0.83283830  0.16665525  0.48036217
   0.33429371  0.16767587  0.48036129
   0.33400657  0.66647579  0.48035673
Direct configuration=    14
   0.33333300  0.16666700  0.00000000
   0.33333300  0.66666700  0.00000000
   0.83333300  0.16666700  0.00000000
   0.83333300  0.66666700  0.00000000
   0.16666700  0.33333300  0.13033206
   0.16666700  0.83333300  0.13033206
   0.66666700  0.33333300  0.13033206
   0.66666700  0.83333300  0.13033206
   0.33363101  0.66499230  0.25756306
   0.33036348  0.16704928  0.25754923
   0.83594039  0.16550081  0.25757545
   0.83342813  0.66915244  0.25751866
   0.66636107  0.33363335  0.35928468
   0.66677364  0.83293882  0.35905632
   0.16649454  0.83350903  0.35953303
   0.16697194  0.33319583  0.35889160
   0.83232799  0.66603796  0.47342373
   0.83291989  0.16663842  0.47347649
   0.33410268  0.16753730  0.47347105
   0.33392058  0.66647229  0.47346270
Direct configuration=    15
   0.33333300  0.16666700  0.00000000
   0.33333300  0.66666700  0.00000000
   0.83333300  0.16666700  0.00000000
   0.83333300  0.66666700  0.00000000
   0.16666700  0.33333300  0.13033206
   0.16666700  0.83333300  0.13033206
   0.66666700  0.33333300  0.13033206
   0.66666700  0.83333300  0.13033206
   0.33400805  0.66293754  0.24843156
   0.32671146  0.16751966  0.24839752
   0.83914150  0.16405703  0.24845557
   0.83354077  0.67221586  0.24833201
   0.66600999  0.33399177  0.34835031
   0.66692275  0.83248170  0.34786978
   0.16627789  0.83371734  0.34895830
   0.16731783  0.33301447  0.34749790
   0.83266290  0.66637679  0.45959183
   0.83308307  0.16660475  0.45970511
   0.33372061  0.16726017  0.45969058
   0.33374860  0.66646531  0.45967464
Direct configuration=    16
   0.33333300  0.16666700  0.00000000
   0.33333300  0.66666700  0.00000000
   0.83333300  0.16666700  0.00000000
   0.83333300  0.66666700  0.00000000
   0.16666700  0.33333300  0.13033206
   0.16666700  0.83333300  0.13033206
   0.66666700  0.33333300  0.13033206
   0.66666700  0.83333300  0.13033206
   0.33376605  0.66425635  0.25429242
   0.32905543  0.16721775  0.25427136
   0.83708693  0.16498369  0.25430898
   0.83346847  0.67024967  0.25422828
   0.66623532  0.33376173  0.35536831
   0.66682705  0.83277509  0.35504963
   0.16641694  0.83358364  0.35574547
   0.16709583  0.33313087  0.35481072
   0.83244795  0.66615932  0.46846955
   0.83297834  0.16662636  0.46854399
   0.33396583  0.16743804  0.46853529
   0.33385899  0.66646979  0.46852422
Direct configuration=    17
   0.33333300  0.16666700  0.00000000
   0.33333300  0.66666700  0.00000000
   0.83333300  0.16666700  0.00000000
   0.83333300  0.66666700  0.00000000
   0.16666700  0.33333300  0.13033206
   0.16666700  0.83333300  0.13033206
   0.66666700  0.33333300  0.13033206
   0.66666700  0.83333300  0.13033206
   0.33351041  0.66555546  0.25311533
   0.33107128  0.16678353  0.25309395
   0.83525224  0.16577178  0.25312143
   0.83355208  0.66857848  0.25307114
   0.66634759  0.33358639  0.35381927
   0.66665377  0.83292422  0.35382684
   0.16659369  0.83346140  0.35424969
   0.16697210  0.33329497  0.35374462
   0.83361183  0.66692357  0.46756204
   0.83348397  0.16668901  0.46756246
   0.33300420  0.16645935  0.46761687
   0.33314079  0.66661995  0.46757054
Direct configuration=    18
   0.33333300  0.16666700  0.00000000
   0.33333300  0.66666700  0.00000000
   0.83333300  0.16666700  0.00000000
   0.83333300  0.66666700  0.00000000
   0.16666700  0.33333300  0.13033206
   0.16666700  0.83333300  0.13033206
   0.66666700  0.33333300  0.13033206
   0.66666700  0.83333300  0.13033206
   0.33326670  0.66679394  0.25199316
   0.33299305  0.16636957  0.25197149
   0.83350317  0.16652308  0.25198931
   0.83363178  0.66698528  0.25196801
   0.66645461  0.33341923  0.35234253
   0.66648859  0.83306639  0.35266111
   0.16676218  0.83334487  0.35282371
   0.16685415  0.33345140  0.35272827
   0.83472140  0.66765215  0.46669688
   0.83396601  0.16674874  0.46662674
   0.33208746  0.16552633  0.46674130
   0.33245612  0.66676309  0.46666137
Direct configuration=    19
   0.33333300  0.16666700  0.00000000
   0.33333300  0.66666700  0.00000000
   0.83333300  0.16666700  0.00000000
   0.83333300  0.66666700  0.00000000
   0.16666700  0.33333300  0.13033206
   0.16666700  0.83333300  0.13033206
   0.66666700  0.33333300  0.13033206
   0.66666700  0.83333300  0.13033206
   0.33318073  0.66723079  0.25159734
   0.33367092  0.16622355  0.25157556
   0.83288622  0.16678809  0.25158997
   0.83365990  0.66642331  0.25157890
   0.66649237  0.33336027  0.35182164
   0.66643032  0.83311654  0.35224992
   0.16682161  0.83330377  0.35232072
   0.16681255  0.33350658  0.35236977
   0.83511278  0.66790914  0.46639171
   0.83413604  0.16676981  0.46629668
   0.33176409  0.16519722  0.46643246
   0.33221462  0.66681359  0.46634068
Direct configuration=    20
   0.33333300  0.16666700  0.00000000
   0.33333300  0.66666700  0.00000000
   0.83333300  0.16666700  0.00000000
   0.83333300  0.66666700  0.00000000
   0.16666700  0.33333300  0.13033206
   0.16666700  0.83333300  0.13033206
   0.66666700  0.33333300  0.13033206
   0.66666700  0.83333300  0.13033206
   0.33311220  0.66757447  0.25066620
   0.33442448  0.16620401  0.25062288
   0.83226859  0.16710440  0.25063273
   0.83358432  0.66577041  0.25063120
   0.66654065  0.33330800  0.35103085
   0.66642471  0.83319072  0.35142068
   0.16683628  0.83328518  0.35127246
   0.16676981  0.33352040  0.35153904
   0.83265566  0.66615960  0.46612116
   0.83291528  0.16667042  0.46598569
   0.33394514  0.16720245  0.46616226
   0.33369877  0.66665250  0.46608380
Direct configuration=    21
   0.33333300  0.16666700  0.00000000
   0.33333300  0.66666700  0.00000000
   0.83333300  0.16666700  0.00000000
   0.83333300  0.66666700  0.00000000
   0.16666700  0.33333300  0.13033206
   0.16666700  0.83333300  0.13033206
   0.66666700  0.33333300  0.13033206
   0.66666700  0.83333300  0.13033206
   0.33311437  0.66756357  0.25069574
   0.33440058  0.16620463  0.25065310
   0.83228819  0.16709436  0.25066309
   0.83358672  0.66579112  0.25066126
   0.66653912  0.33330966  0.35105593
   0.66642489  0.83318836  0.35144699
   0.16683582  0.83328577  0.35130571
   0.16677117  0.33351997  0.35156539
   0.83273361  0.66621510  0.46612974
   0.83295400  0.16667357  0.46599556
   0.33387595  0.16713884  0.46617083
   0.33365169  0.66665761  0.46609195
Direct configuration=    22
   0.33333300  0.16666700  0.00000000
   0.33333300  0.66666700  0.00000000
   0.83333300  0.16666700  0.00000000
   0.83333300  0.66666700  0.00000000
   0.16666700  0.33333300  0.13033206
   0.16666700  0.83333300  0.13033206
   0.66666700  0.33333300  0.13033206
   0.66666700  0.83333300  0.13033206
   0.33326250  0.66698054  0.25028185
   0.33373391  0.16651446  0.25022170
   0.83296426  0.16683149  0.25024380
   0.83341977  0.66631993  0.25022398
   0.66657122  0.33334251  0.35098131
   0.66657776  0.83324565  0.35110921
   0.16671792  0.83333195  0.35105748
   0.16671883  0.33339547  0.35115821
   0.83303303  0.66646031  0.46620031
   0.83314162  0.16666580  0.46607409
   0.33356575  0.16689296  0.46624790
   0.33347099  0.66666366  0.46620484
Direct configuration=    23
   0.33333300  0.16666700  0.00000000
   0.33333300  0.66666700  0.00000000
   0.83333300  0.16666700  0.00000000
   0.83333300  0.66666700  0.00000000
   0.16666700  0.33333300  0.13033206
   0.16666700  0.83333300  0.13033206
   0.66666700  0.33333300  0.13033206
   0.66666700  0.83333300  0.13033206
   0.33338515  0.66649779  0.24993914
   0.33318190  0.16677100  0.24986449
   0.83352406  0.16661383  0.24989661
   0.83328154  0.66675780  0.24986191
   0.66659780  0.33336971  0.35091953
   0.66670433  0.83329309  0.35082952
   0.16662030  0.83337020  0.35085194
   0.16667549  0.33329238  0.35082105
   0.83328097  0.66666334  0.46625875
   0.83329696  0.16665936  0.46613912
   0.33330889  0.16668936  0.46631172
   0.33332137  0.66666868  0.46629833
